50
Lattice="8.83812 0.00140 0.00260 0.00140 8.83812 0.00259 0.00372 0.00371 12.63274" Properties=species:S:1:pos:R:3:force:R:3 pbc="T T T" energy=-15163.30227 
Li     1.24775550     2.22803953     2.28929036     0.32009648    -0.24497147     0.50191282
Li     5.23253314     6.80350039     3.06200148    -0.01730303     0.27710388     0.19467686
Li     1.59943105     5.89762503     8.96150647     0.18673589     0.09631183    -0.41455635
Li     5.99618507     2.39638659    10.40943138     0.51193998    -1.16414921    -0.57814035
Li     2.10606334     6.81376665     2.30485750    -0.30160255    -0.39714552     0.04795846
Li     6.41372776     2.60952085     3.95835612    -0.12145733     0.09151816     0.00053353
Li     2.14546850     1.86028940     8.92688028    -0.64429599    -0.12978082     0.55887434
Li     6.61204029     6.18628240     9.26073953     0.03333166     0.24305255    -0.22926233
Li     8.66501215     0.30547017    11.36964127    -0.22713697     0.19307775     0.14890429
Li     8.02353855     8.32492652     4.78256207     0.01993877    -0.10906899     0.34472089
Li     3.83395896     4.09316545     7.02636172     0.47747918     0.34535447     0.39914849
Li     3.40132264     4.13108882     0.56310596     0.36824729     0.77093812     0.61007910
Li     1.68105973     7.12531095    12.04986701     0.64405014    -0.24282965    -0.60915670
Li     5.84350576     2.73510075     0.99870469     0.01808105    -0.23182247     0.28737747
Li     2.35853445     1.67108088     6.50503081    -0.53750159     0.17819710    -0.58447636
Li     5.54815551     6.02867021     6.57194789     0.95521163     0.42706746     0.53084813
Li     1.73705715     5.60825868     5.59590420    -0.43243144     0.98194645    -0.62317780
Li     6.44263726     1.89260111     7.12271196     0.05165182     0.72734330     0.13339808
Li     2.07879982     2.62648174    11.84735067    -0.69082096    -1.01724295    -0.10714268
Li     5.85343941     6.47873402    12.41747169     0.38836624     0.20419061     0.00034123
Ge     3.93114836     4.36134170    10.26324989    -0.48185072     0.58743166    -1.34036224
Ge     3.71061744     4.30017620     4.16009063     0.97747206     0.81661124    -1.22122235
P     8.46070545     8.70457126     8.24013589    -2.10955188     1.01455482     0.65627273
P     8.49874182     0.02804177     1.82231451     0.75870111    -0.70938590    -0.76705217
P     8.40844229     3.93572150     6.10611852     0.75081228    -1.20248850     1.60363503
P     3.94073642     0.24108104    12.40562624    -0.50719738    -0.92280792    -2.48251959
S     8.22401952     5.33072708     4.83319288    -0.05030699     2.35383101    -2.34896859
S     8.38258762     2.03979445     5.28998235    -0.48275493     0.71539727     0.12022556
S     2.34240488     0.31533229    10.90935375     0.50370082     0.26489606     1.29149930
S     5.58018735     8.70693294    11.17799815     0.10041980     1.09514337     0.91150313
S     3.49965759     1.77681734     1.05489627     0.56434561     0.17285389     0.26692259
S     3.84187778     7.21615251     0.69381951    -0.62453563    -0.14575603     0.83811971
S     1.51921410     4.02901389     7.05499905    -1.06459388    -0.69534409     0.84982309
S     6.96380706     4.39357917     7.46558213    -0.51839792    -0.72259321     0.91369490
S     8.61819412     7.18945403     0.56923064    -0.00986769     0.52476370     0.42089048
S     8.31866656     1.92188978     0.88047315     0.57365688    -0.53380651    -0.26247485
S     1.21823220     8.47846191     7.11350370     1.28179442    -0.17076205    -1.18904057
S     6.50137089     8.49346685     7.39017302     1.15036698    -1.10821758    -0.10543241
S     4.15260703     2.49204300     5.35705297     0.89032845    -0.07923185    -0.75610637
S     3.88472418     6.44477151     5.25770012    -0.71137842    -1.06251413    -1.32190490
S     1.74267987     4.72253186    11.00100599     1.17041599    -0.66661819     0.69203804
S     5.59721043     4.10083385    11.73925497    -0.09611214     1.11308752     0.19578630
S     8.30592608     1.69591135     9.20843451     0.44022576     0.18820655    -0.26311268
S     8.78419680     7.41961669     9.75220433    -0.97698139    -1.74080589     0.45663798
S     6.70599008     8.65732526     2.57403657    -1.93447081     0.38380542     1.61801927
S     1.17692949     8.71710178     3.27256277    -0.58759820     0.56732436    -0.57276475
S     4.13916788     6.07251122     8.85578643     0.23213769    -0.02167651     0.30546705
S     4.30034653     2.64710956     8.83148476    -0.41427939    -0.42579451     0.46677087
S     5.39281673     4.63430069     2.55026737    -0.29033640    -1.16939837     0.49314006
S     1.85745335     4.31206304     2.94150567     0.47683731     0.57030567    -0.08605232
50
Lattice="8.83812 0.00140 0.00260 0.00140 8.83812 0.00259 0.00372 0.00371 12.63274" Properties=species:S:1:pos:R:3:force:R:3 pbc="T T T" energy=-15163.39783 
Li     1.23463924     2.25151345     2.30509248     0.31674750    -0.34239384     0.47091000
Li     5.21782729     6.80570984     3.05216983     0.00515073     0.24344667     0.15992426
Li     1.57289127     5.87398809     8.97876731     0.17937705     0.12987106    -0.48087478
Li     5.97405814     2.41319770    10.37322082     0.61009099    -1.18331723    -0.49299099
Li     2.08993924     6.82283241     2.29614463    -0.30731907    -0.44611038     0.04062364
Li     6.44243292     2.61684211     3.97892577    -0.23105702     0.11032923    -0.07062794
Li     2.11694037     1.83397653     8.94111609    -0.51225150    -0.08120513     0.53514031
Li     6.57343908     6.13783710     9.25850872     0.14311278     0.28160834    -0.21797441
Li     8.67555993     0.29014944    11.41098785    -0.23317881     0.14145653     0.05106916
Li     8.03841454     8.30271537     4.79024215    -0.01204053    -0.09708162     0.32084659
Li     3.84123892     4.11609145     7.06946196     0.46959136     0.25472897     0.20005228
Li     3.41404078     4.14895496     0.55388235     0.37130006     0.68935874     0.64805064
Li     1.70539762     7.11307869    12.07297055     0.62766440    -0.20404809    -0.67100883
Li     5.85077593     2.76521492     0.97356424    -0.02896247    -0.32392948     0.38742633
Li     2.37119085     1.64415086     6.52082614    -0.43270459     0.26847553    -0.60387873
Li     5.53270129     6.02468698     6.59530831     0.95815425     0.42934960     0.51195053
Li     1.74330078     5.65622663     5.57031866    -0.51602595     0.71265486    -0.38739651
Li     6.47237846     1.89982732     7.10357907     0.02605243     0.64233667     0.14801510
Li     2.05411398     2.63208493    11.87774814    -0.67832656    -0.99342985    -0.10019090
Li     5.87838606     6.45736595    12.37537228     0.23490977     0.30290369     0.12769779
Ge     3.92362187     4.35587683    10.26466736    -0.44385893     0.53296113    -1.31744511
Ge     3.70985246     4.31781131     4.15595245     1.00771152     0.65758359    -1.22345331
P     8.46435170     8.70643156     8.25104176    -2.18212434     0.76397775     0.56855292
P     8.51497820     0.02946829     1.81757081     0.20777166    -1.01412062    -0.69654474
P     8.43127896     3.93408671     6.09228421     0.54669087    -1.41719760     2.24235625
P     3.95275388     0.23315705    12.39133425    -0.73968254    -0.61261812    -2.15195611
S     8.20525738     5.32310456     4.83843773    -0.07296098     2.59646512    -2.59503385
S     8.37650032     2.02981654     5.29633726    -0.37508581     0.76052955     0.11231124
S     2.32996143     0.31880904    10.91398089     0.59282890     0.24653560     1.26430174
S     5.59188279     8.70392815    11.18156497     0.10307335     1.06448317     0.83768490
S     3.49856538     1.76640692     1.06844845     0.65551962     0.14407616     0.01432488
S     3.82146819     7.22772643     0.70069776    -0.34459476    -0.31167950     0.73290356
S     1.53256021     4.03004029     7.06877750    -1.16928849    -0.50203327     0.52915459
S     6.96150350     4.37389434     7.47633227    -0.26943610    -0.72716281     0.62242697
S     8.62719697     7.16690816     0.55293416    -0.04228940     0.76436499     0.62051461
S     8.31957253     1.91750717     0.88080969     0.60231184    -0.49444295    -0.28515740
S     1.21678885     8.48000046     7.12043663     1.37283944    -0.18988325    -1.23185176
S     6.52261399     8.48814583     7.39081107     0.99192288    -1.05623905    -0.18834711
S     4.14388928     2.50597999     5.33651476     0.87178937    -0.06952372    -0.57392001
S     3.88768109     6.44615898     5.24670842    -0.61997807    -0.96647125    -1.27268383
S     1.75260923     4.74224053    11.00681421     1.10120464    -0.82255192     0.80781798
S     5.60719369     4.10334092    11.73142325    -0.11483026     1.10278932     0.07894568
S     8.29288829     1.67755843     9.21214392     0.49205358     0.44820059    -0.13355038
S     8.77543467     7.41055955     9.75001073    -0.96534526    -1.74730076     0.57295177
S     6.70552957     8.64287820     2.57494090    -1.45605481     0.43219671     1.43207223
S     1.18071015     8.71940294     3.26509940    -0.51578849     0.57931072    -0.49690200
S     4.12165064     6.07604221     8.87453329     0.25755517     0.02120752     0.21033512
S     4.30739232     2.64651474     8.82281363    -0.64562276    -0.45131011     0.49857338
S     5.38825962     4.62770599     2.53745486    -0.29488930    -1.02444449     0.52120975
S     1.85431075     4.30884678     2.94313750     0.46251510     0.74935209    -0.07901173
50
Lattice="8.83812 0.00140 0.00260 0.00140 8.83812 0.00259 0.00372 0.00371 12.63274" Properties=species:S:1:pos:R:3:force:R:3 pbc="T T T" energy=-15163.46924 
Li     1.22330021     2.27305427     2.32349134     0.29945859    -0.44374683     0.42808117
Li     5.20316901     6.80926940     3.04323964     0.03196999     0.19748377     0.12309752
Li     1.54738257     5.85110337     8.99333344     0.16712490     0.16000121    -0.54537045
Li     5.95535031     2.42341082    10.33431710     0.70970615    -1.15687232    -0.36154342
Li     2.07212799     6.82940722     2.28766875    -0.31570171    -0.48925604     0.03023101
Li     6.46981699     2.62476710     3.99907640    -0.34351241     0.13268568    -0.14210300
Li     2.08560213     1.80724626     8.95830761    -0.38694264    -0.03561094     0.48472072
Li     6.53568296     6.09101927     9.25506938     0.24337948     0.30820747    -0.19646553
Li     8.68479822     0.27563461    11.45256498    -0.23667038     0.08645884    -0.04187317
Li     8.05320445     8.27999330     4.79969544    -0.04362764    -0.08572885     0.29562666
Li     3.85111927     4.14040358     7.11361846     0.44529683     0.18088938     0.01065457
Li     3.42880605     4.17062921     0.54827219     0.36488446     0.59858222     0.66934070
Li     1.73319242     7.09972819    12.09231517     0.56672803    -0.16925568    -0.72116769
Li     5.85787577     2.79349004     0.95060931    -0.06792402    -0.41664475     0.47942305
Li     2.38142617     1.61874759     6.53324505    -0.32618961     0.35718146    -0.61687014
Li     5.52259195     6.02309501     6.62148382     0.92823361     0.44045960     0.45458641
Li     1.74666853     5.70809337     5.54261312    -0.59694181     0.47908680    -0.18586340
Li     6.50222613     1.91061402     7.08529343    -0.01202820     0.53802758     0.16571871
Li     2.02569012     2.63215989    11.90754962    -0.65035872    -0.93800740    -0.07552330
Li     5.90460609     6.43770880    12.33403679     0.12919889     0.38758750     0.23626915
Ge     3.91586938     4.35070202    10.26538338    -0.38695176     0.45561380    -1.25956460
Ge     3.70962361     4.33577290     4.15116991     1.03450406     0.48187431    -1.21727267
P     8.46527602     8.70924079     8.26264156    -2.12154640     0.43345720     0.42866175
P     8.53145238     0.02963017     1.81196588    -0.35496227    -1.27268771    -0.59329684
P     8.45476696     3.93068929     6.08125996     0.36919109    -1.45493144     2.65617024
P     3.96383479     0.22448042    12.37438102    -0.97388316    -0.30657100    -1.74947774
S     8.18643163     5.31861550     4.84055391    -0.08907349     2.65402019    -2.65404432
S     8.36996961     2.02076643     5.30281910    -0.25789478     0.78886614     0.10399850
S     2.31824721     0.32257790    10.92012307     0.66447887     0.21550778     1.21126277
S     5.60368717     8.70220785    11.18613496     0.12507605     1.01805635     0.74195508
S     3.49826320     1.75618323     1.08200040     0.74067357     0.10822551    -0.25083330
S     3.80067033     7.23891048     0.70844886    -0.09488880    -0.44520034     0.63221981
S     1.54448242     4.03046139     7.08317479    -1.25712125    -0.34670039     0.24844543
S     6.95887877     4.35336007     7.48781735    -0.05619990    -0.70930438     0.37265099
S     8.63613733     7.14531090     0.53740518    -0.05204914     0.95372301     0.77461146
S     8.32120193     1.91253537     0.88080275     0.63127729    -0.45231410    -0.30485725
S     1.21699893     8.48130860     7.12587866     1.37430712    -0.19948830    -1.20152791
S     6.54502304     8.48156097     7.39122170     0.80674969    -0.98402046    -0.28201921
S     4.13623156     2.51981539     5.31531257     0.85180044    -0.08082715    -0.39578016
S     3.88988835     6.44638197     5.23419981    -0.49408554    -0.86413553    -1.18404772
S     1.76385058     4.76093425    11.01358677     1.01961164    -0.97539515     0.91583781
S     5.61702595     4.10717144    11.72369660    -0.13043791     1.05585927    -0.07242937
S     8.28045925     1.65976835     9.21568788     0.52851161     0.73756550     0.01578130
S     8.76552250     7.39941202     9.74850923    -0.94545720    -1.71397108     0.65612497
S     6.70331796     8.62896970     2.57756689    -0.96671807     0.49136367     1.23902532
S     1.18386542     8.72239807     3.25704786    -0.43333817     0.58671963    -0.41072692
S     4.10446582     6.07959415     8.89350904     0.28143758     0.07551053     0.10426646
S     4.31365233     2.64537774     8.81475348    -0.87479752    -0.47418135     0.51089922
S     5.38335361     4.61988734     2.52528590    -0.28953224    -0.86834804     0.54458595
S     1.85172861     4.30653616     2.94467217     0.44369580     0.92230800    -0.07256943
50
Lattice="8.83812 0.00140 0.00260 0.00140 8.83812 0.00259 0.00372 0.00371 12.63274" Properties=species:S:1:pos:R:3:force:R:3 pbc="T T T" energy=-15163.51564 
Li     1.21364943     2.29208305     2.34422806     0.27673884    -0.54186083     0.38045656
Li     5.18872031     6.81391822     3.03501274     0.05538160     0.14694356     0.08361928
Li     1.52285791     5.82915740     9.00483823     0.15364926     0.18615136    -0.59465447
Li     5.94062575     2.42717518    10.29348986     0.81041991    -1.09592710    -0.19108415
Li     2.05260185     6.83324984     2.27937930    -0.32315771    -0.52449385     0.02283488
Li     6.49523309     2.63341187     4.01839368    -0.45408263     0.15889065    -0.21384828
Li     2.05218278     1.78037648     8.97815427    -0.27599888     0.00789732     0.41871752
Li     6.49936120     6.04601568     9.25054617     0.33458205     0.32551098    -0.16359763
Li     8.69270165     0.26163172    11.49381880    -0.23604582     0.03335172    -0.13098128
Li     8.06771974     8.25684458     4.81077033    -0.06881717    -0.07901785     0.26863448
Li     3.86345171     4.16566751     7.15773781     0.40788164     0.12603952    -0.16151837
Li     3.44556605     4.19558132     0.54639248     0.34765035     0.50395340     0.67702073
Li     1.76407479     7.08546660    12.10761147     0.46714050    -0.13703580    -0.76038565
Li     5.86458280     2.81938899     0.93036768    -0.10435730    -0.50379223     0.55761312
Li     2.38982716     1.59538391     6.54221012    -0.22563478     0.43957887    -0.62191941
Li     5.51766106     6.02395329     6.65012747     0.87041008     0.45888195     0.36256102
Li     1.74671289     5.76250831     5.51393554    -0.66818846     0.29464344    -0.03521119
Li     6.53194187     1.92436596     7.06796826    -0.06139569     0.41770733     0.18791118
Li     1.99371550     2.62702400    11.93686655    -0.60252197    -0.85891440    -0.04011089
Li     5.93148663     6.42024760    12.29410397     0.06138768     0.46093333     0.32288191
Ge     3.90792841     4.34578034    10.26542927    -0.30742329     0.36129389    -1.17563132
Ge     3.70994436     4.35395109     4.14575166     1.04501696     0.32299415    -1.22006885
P     8.46355770     8.71258341     8.27474959    -1.93227071     0.03155842     0.24882562
P     8.54744881     0.02820762     1.80563471    -0.88978534    -1.48197506    -0.47602203
P     8.47866324     3.92548837     6.07356580     0.19330056    -1.28860449     2.82502431
P     3.97367936     0.21544114    12.35528725    -1.20254959    -0.02305175    -1.29321227
S     8.16753985     5.31732769     4.83947399    -0.07274047     2.50807906    -2.51239126
S     8.36314303     2.01268467     5.30941185    -0.12954642     0.79843793     0.09249856
S     2.30735758     0.32659768    10.92770838     0.72022316     0.17510797     1.13647573
S     5.61561620     8.70171552    11.19158717     0.16313416     0.95897196     0.62792626
S     3.49885232     1.74611199     1.09522116     0.81669304     0.07353151    -0.51372379
S     3.77980374     7.24953478     0.71694330     0.13535161    -0.54047131     0.53966482
S     1.55486694     4.03046468     7.09783942    -1.32217832    -0.23338569     0.01214603
S     6.95619218     4.33201766     7.49972549     0.11918262    -0.66591682     0.16321543
S     8.64499561     7.12490760     0.52284154    -0.04011125     1.09998113     0.89208319
S     8.32358688     1.90703051     0.88042923     0.65726402    -0.41224710    -0.31890563
S     1.21886115     8.48237400     7.12986399     1.29150826    -0.20187871    -1.10433549
S     6.56835331     8.47380720     7.39129230     0.59008721    -0.90262090    -0.38569144
S     4.12961483     2.53352342     5.29368070     0.83132763    -0.10604339    -0.22919899
S     3.89149665     6.44556536     5.22029466    -0.34962271    -0.75460256    -1.05975572
S     1.77629349     4.77841428    11.02144584     0.92635802    -1.12274060     1.00833806
S     5.62667990     4.11226328    11.71589970    -0.14976590     0.97622761    -0.24810605
S     8.26869286     1.64290401     9.21924308     0.55160029     1.04925474     0.18493339
S     8.75449503     7.38622776     9.74779999    -0.92113159    -1.63990078     0.70457248
S     6.69994870     8.61568241     2.58167708    -0.50264638     0.55568127     1.05175650
S     1.18649273     8.72609219     3.24851998    -0.34226568     0.58377858    -0.31557506
S     4.08765692     6.08322915     8.91256877     0.30571219     0.14034995    -0.00966373
S     4.31884674     2.64367302     8.80732526    -1.09837872    -0.48865007     0.50633075
S     5.37811015     4.61104157     2.51379834    -0.27985949    -0.70529896     0.56159291
S     1.84968565     4.30533965     2.94611623     0.42300644     1.08634125    -0.06591108
50
Lattice="8.83812 0.00140 0.00260 0.00140 8.83812 0.00259 0.00372 0.00371 12.63274" Properties=species:S:1:pos:R:3:force:R:3 pbc="T T T" energy=-15163.53344 
Li     1.20556523     2.30804402     2.36701281     0.25097228    -0.63482751     0.32770865
Li     5.17462402     6.81936850     3.02727570     0.07929533     0.09319989     0.04301223
Li     1.49926262     5.80831324     9.01300545     0.14137560     0.20821772    -0.62725118
Li     5.93044680     2.42484273    10.25172855     0.91457910    -1.01345992     0.00697691
Li     2.03134209     6.83416828     2.27124240    -0.32692115    -0.55280345     0.01483758
Li     6.51804891     2.64291201     4.03646352    -0.56509559     0.19057595    -0.28675536
Li     2.01733484     1.75363408     9.00026416    -0.16957569     0.05009098     0.33415964
Li     6.46501010     6.00295938     9.24512865     0.42236727     0.33899658    -0.11755927
Li     8.69926987     0.24785754    11.53421711    -0.23402757    -0.01395790    -0.22099500
Li     8.08180780     8.23332907     4.82330238    -0.09311147    -0.07199084     0.24046768
Li     3.87801057     4.19155275     7.20082319     0.35707593     0.07927453    -0.32253972
Li     3.46420428     4.22325406     0.54827776     0.31958816     0.40613816     0.67297617
Li     1.79745494     7.07048845    12.11863819     0.32560424    -0.10655196    -0.79544597
Li     5.87068954     2.84241014     0.91328511    -0.13736141    -0.58659663     0.62198676
Li     2.39694921     1.57453360     6.54769414    -0.13263126     0.51792320    -0.61974569
Li     5.51757841     6.02735682     6.68069519     0.79861076     0.47983748     0.24264790
Li     1.74304702     5.81839010     5.48515160    -0.72582040     0.14718570     0.07644244
Li     6.56122434     1.94039446     7.05174032    -0.12523819     0.28382953     0.21677422
Li     1.95849478     2.61713499    11.96586964    -0.53611749    -0.76238349     0.00122594
Li     5.95862446     6.40540000    12.25608808     0.01893262     0.52721834     0.39652103
Ge     3.89984901     4.34106565    10.26485128    -0.21090539     0.26108951    -1.06724133
Ge     3.71081856     4.37224413     4.13970295     1.04416178     0.16403620    -1.21994742
P     8.45944080     8.71595489     8.28712954    -1.63217847    -0.42017901     0.04430819
P     8.56228854     0.02494578     1.79873101    -1.36667380    -1.63961793    -0.35524594
P     8.50272572     3.91870049     6.06941015    -0.00229521    -0.94257957     2.77277651
P     3.98199726     0.20640128    12.33464397    -1.41560939     0.22446855    -0.80069330
S     8.14861937     5.31905843     4.83537769    -0.01446859     2.18189006    -2.19867860
S     8.35618197     2.00558771     5.31609529     0.00444239     0.79209558     0.07788405
S     2.29736747     0.33081544    10.93663609     0.75601548     0.12455465     1.04534523
S     5.62770422     8.70237733    11.19777717     0.21187053     0.88938572     0.50244190
S     3.50042124     1.73616043     1.10778336     0.87885816     0.04347911    -0.76180622
S     3.75916470     7.25947643     0.72605997     0.35070220    -0.59795419     0.45510736
S     1.56363000     4.03018743     7.11247307    -1.35799253    -0.15889063    -0.17836792
S     6.95365719     4.30994121     7.51179279     0.26118558    -0.59840559    -0.00422161
S     8.65377813     7.10588983     0.50939541    -0.00867093     1.20786095     0.97649451
S     8.32675441     1.90104727     0.87967356     0.67928607    -0.37665244    -0.32933022
S     1.22226989     8.48319343     7.13250959     1.14036976    -0.19767742    -0.95005707
S     6.59232031     8.46499264     7.39089911     0.34548959    -0.81840073    -0.49967870
S     4.12401787     2.54706137     5.27184060     0.81161455    -0.14390793    -0.07618804
S     3.89267973     6.44384430     5.20515898    -0.20118884    -0.63710898    -0.90643304
S     1.78981114     4.79449050    11.03049245     0.81805600    -1.25584302     1.08102740
S     5.63612384     4.11851265    11.70782884    -0.16901565     0.87386085    -0.42910625
S     8.25762604     1.62735323     9.22300951     0.56111364     1.36614969     0.36628191
S     8.74239470     7.37111343     9.74793981    -0.89412357    -1.53217299     0.71939260
S     6.69598577     8.60310431     2.58703864    -0.08803384     0.61566613     0.87933441
S     1.18870049     8.73047649     3.23963932    -0.24742383     0.57057246    -0.21956662
S     4.07126772     6.08702155     8.93155764     0.33098090     0.21445044    -0.12834765
S     4.32270481     2.64138627     8.80052872    -1.31199217    -0.49632622     0.48337001
S     5.37254661     4.60137557     2.50302150    -0.26016618    -0.54043854     0.57126301
S     1.84815747     4.30545257     2.94747657     0.39675652     1.23292928    -0.06364274
50
Lattice="8.83812 0.00140 0.00260 0.00140 8.83812 0.00259 0.00372 0.00371 12.63274" Properties=species:S:1:pos:R:3:force:R:3 pbc="T T T" energy=-15163.51889 
Li     1.19890635     2.32041769     2.39152492     0.22374649    -0.71075363     0.27885131
Li     5.16102436     6.82531417     3.01980842     0.10039984     0.03943788     0.00246419
Li     1.47654661     5.78870829     9.01765870     0.12815328     0.22039250    -0.63673241
Li     5.92538455     2.41689498    10.21017348     1.00736846    -0.91743062     0.20380992
Li     2.00835321     6.83201500     2.26322049    -0.33205667    -0.57252030     0.00763950
Li     6.53763694     2.65343172     4.05286940    -0.66472893     0.22534718    -0.35161260
Li     1.98168554     1.72727695     9.02413993    -0.07365228     0.09028556     0.23624525
Li     6.43314092     5.96195721     9.23908041     0.49607408     0.33949449    -0.05958859
Li     8.70451290     0.23406115    11.57322686    -0.22921092    -0.05649282    -0.30526356
Li     8.09532259     8.20950834     4.83711874    -0.11211570    -0.06827491     0.21458535
Li     3.89449278     4.21777412     7.24194566     0.30112462     0.04425779    -0.46021050
Li     3.48454144     4.25306985     0.55389046     0.28602081     0.31475673     0.65748757
Li     1.83250828     7.05497902    12.12520600     0.15761884    -0.08115991    -0.82649414
Li     5.87600943     2.86208336     0.89972305    -0.16591076    -0.65291700     0.66115025
Li     2.40330658     1.55664138     6.54971659    -0.04902185     0.58367375    -0.60578714
Li     5.52192836     6.03340978     6.71248698     0.72002992     0.49991042     0.10954072
Li     1.73536758     5.87486461     5.45690737    -0.76355247     0.04495027     0.14756071
Li     6.58969427     1.95793391     7.03678056    -0.19758587     0.14331978     0.24526102
Li     1.92043992     2.60305444    11.99476319    -0.45915640    -0.65338981     0.05017980
Li     5.98575850     6.39353800    12.22042536    -0.00113807     0.57986888     0.44966141
Ge     3.89169018     4.33650833    10.26370963    -0.09490525     0.15036961    -0.94913467
Ge     3.71224299     4.39055079     4.13303155     1.03771312    -0.00175353    -1.22459238
P     8.45331076     8.71879035     8.29951493    -1.24404861    -0.89223850    -0.15881922
P     8.57536925     0.01965811     1.79141325    -1.77099568    -1.74841906    -0.23584672
P     8.52668882     3.91076770     6.06871919    -0.22525597    -0.47776158     2.56023842
P     3.98852143     0.19767681    12.31308780    -1.60122868     0.43062646    -0.29050248
S     8.12975740     5.32340355     4.82865633     0.08570061     1.73650558    -1.76772114
S     8.34925417     1.99947083     5.32284549     0.14211975     0.77570605     0.05836679
S     2.28832570     0.33516591    10.94678386     0.77409219     0.06564047     0.93848482
S     5.63999830     8.70410500    11.20454596     0.26265228     0.81530662     0.37075990
S     3.50303971     1.72630103     1.11937994     0.92704981     0.02219799    -0.98917429
S     3.73902978     7.26865983     0.73568683     0.55870682    -0.62176151     0.37935261
S     1.57072642     4.02972041     7.12683373    -1.36824207    -0.11861530    -0.32809244
S     6.95144616     4.28723439     7.52380661     0.37705979    -0.50605954    -0.14094916
S     8.66251501     7.08839947     0.49717636     0.03212578     1.28674686     1.04163726
S     8.33072532     1.89463552     0.87852527     0.69266556    -0.34679752    -0.33428194
S     1.22703500     8.48377210     7.13400318     0.94529675    -0.19006326    -0.76020934
S     6.61660624     8.45523021     7.38990719     0.06564619    -0.73792868    -0.62746040
S     4.11941844     2.56037213     5.24999658     0.79501733    -0.19381354     0.06533388
S     3.89361635     6.44136472     5.18899503    -0.06155293    -0.50789131    -0.72700818
S     1.80425738     4.80899347    11.04080151     0.69326778    -1.37622120     1.12590223
S     5.64532683     4.12578681    11.69927482    -0.19276777     0.75659344    -0.59850261
S     8.24727773     1.61350611     9.22720088     0.56243608     1.67303983     0.54685830
S     8.72926872     7.35421898     9.74894334    -0.86327141    -1.39453272     0.70341497
S     6.69193297     8.59131633     2.59343512     0.26948975     0.66956738     0.72536878
S     1.19060213     8.73552869     3.23053049    -0.15628809     0.54328213    -0.12364552
S     4.05534189     6.09105637     8.95031614     0.35806172     0.29429232    -0.25156599
S     4.32497119     2.63851241     8.79434016    -1.50852931    -0.49279683     0.45203805
S     5.36669283     4.59109906     2.49297419    -0.22989455    -0.37680521     0.57525593
S     1.84711208     4.30704628     2.94875501     0.36526028     1.35579922    -0.06701614
50
Lattice="8.83812 0.00140 0.00260 0.00140 8.83812 0.00259 0.00372 0.00371 12.63274" Properties=species:S:1:pos:R:3:force:R:3 pbc="T T T" energy=-15163.47256 
Li     1.19352088     2.32878860     2.41746570     0.20271644    -0.76286064     0.23532362
Li     5.14804734     6.83144992     3.01239085     0.11608727    -0.00758130    -0.03999523
Li     1.45465120     5.77042064     9.01875709     0.11671562     0.22222573    -0.61571589
Li     5.92593531     2.40389597    10.16994966     1.08002825    -0.81719425     0.38074381
Li     1.98363314     6.82669595     2.25527969    -0.33672389    -0.58113341    -0.00554709
Li     6.55344272     2.66515082     4.06724545    -0.74738997     0.26389073    -0.40580854
Li     1.94579972     1.70154792     9.04921107     0.00572358     0.12400468     0.13531760
Li     6.40417762     5.92303636     9.23273079     0.56003113     0.33166723     0.01118848
Li     8.70845903     0.22001795    11.61035481    -0.22164235    -0.09299330    -0.38787615
Li     8.10815016     8.18542382     4.85205887    -0.12580148    -0.06467183     0.19164596
Li     3.91256598     4.24411445     7.28031654     0.23950208     0.00926380    -0.58012429
Li     3.50636719     4.28448790     0.56312362     0.24685858     0.23429945     0.63160064