1.824081554944649408e+00 5.629304513707840130e+00 3.727568314606619637e+00 3.715822870869845307e+00 1.848858068017531942e+00 5.589501430427142203e+00 1.875905690887141875e+00 6.516576226749825132e-03 1.895804639442449480e+00 1.885665135231884282e+00 1.887497661884183886e+00 5.271939161882738950e-02 5.623174301736139746e+00 1.877362261265984669e-02 5.594481315911983721e+00 5.584441568842055809e-02 3.782377918676490758e+00 7.469135215401104588e+00 5.604202308480825678e+00 5.523675359145788222e-02 1.874869421338688058e+00 1.781780347882242710e+00 3.739830234931018627e+00 1.886854307808749187e+00 5.641548328490112674e+00 3.739716118178149085e+00 5.636146864458819294e+00 5.588254372928357583e+00 1.843836827263678035e+00 3.747634207052938482e+00 3.226626348549047063e-02 5.583683627806680150e+00 5.595627403062529481e+00 4.721612842444857655e-02 5.624908033226133419e+00 1.858039980615246556e+00 1.876771833555361813e+00 1.862580624675461927e+00 3.672195825654837265e+00 1.888376440522803845e+00 7.499044440553287671e+00 5.530142388798433117e+00 1.199619686090033083e-02 1.580700396413862313e-02 3.706765706122596260e+00 5.577201996847135135e+00 1.887032450856180432e+00 7.470416033185839133e+00 3.682445519659061084e+00 3.783121942124944681e+00 4.447958583093345603e-02 3.691378111544169727e+00 3.724800031970904257e+00 3.710802263923820288e+00 3.711477772776544004e+00 5.629353140474624873e+00 5.610209838144570860e+00 5.635501745753419556e+00 3.726738465356810526e+00 1.870789932338777106e+00 1.313409583066054223e-02 7.483747579638735381e+00 5.857736599591009327e-03 3.718142738055439711e+00 7.459297985539592446e+00 4.581004552021401832e-02 8.395658995699223359e-02 1.929193169878397507e+00 5.587757303927697983e+00 5.571411018218141109e+00 5.628535569121562609e+00 3.704748768015303728e+00 3.742203514666189612e+00 1.819801725050655072e+00 1.905676119182553974e+00 1.847170484427154369e+00 3.778332685823318382e+00 5.578331901106306390e+00 2.075091376171176588e-02 3.744563706344209209e+00 3.755980536079462695e+00 3.672259776654520191e+00 5.667141235718341719e+00 1.886808123309328122e+00 1.828011868007659357e+00 5.639335114556821793e+00 7.469110545650635480e+00 5.679975435541294360e+00 5.618062881496071803e+00 7.466854665741361252e+00 7.445277739056346711e+00 1.862461323243016054e+00 1.902263973331750790e+00 3.721494700502682385e+00 6.190949597178661834e-02 3.706391259775331903e+00
1.824111557242174442e+00 5.629284517180165537e+00 3.727568282603443528e+00 3.715812885086239969e+00 1.848868073917310006e+00 5.589511438728466786e+00 1.875925661287768609e+00 6.506564424636184125e-03 1.895784615783511873e+00 1.885665135231884282e+00 1.887497661884183886e+00 5.271939161882738950e-02 5.623164319452287785e+00 1.875362852011068157e-02 5.594491345382171410e+00 5.585443221422127513e-02 3.782367926892857835e+00 7.469145207071171910e+00 5.604182280095564295e+00 5.521673716895468542e-02 1.874849466223705630e+00 1.781800347858479627e+00 3.739830237242492306e+00 1.886854277064915264e+00 5.641538327335409164e+00 3.739726117019854801e+00 5.636146872774449257e+00 5.588254356390675248e+00 1.843846820203047798e+00 3.747624200010954976e+00 3.226626348549047063e-02 5.583683627806680150e+00 5.595627403062529481e+00 4.720611306523260498e-02 5.624908025012325119e+00 1.858029996001467898e+00 1.876781815839212886e+00 1.862600618768011307e+00 3.672185796184649575e+00 1.888386471253117094e+00 7.499044455825169209e+00 5.530162373397907061e+00 1.199619686090033083e-02 1.580700396413862313e-02 3.706765706122596260e+00 5.577202012218233307e+00 1.887032457914253003e+00 7.470426033171534641e+00 3.682445533863573761e+00 3.783131949180459586e+00 4.448957876034156239e-02 3.691378109211000069e+00 3.724820031965788925e+00 3.710802249811245179e+00 3.711487772764662463e+00 5.629353141630361712e+00 5.610209822772653787e+00 5.635491745765301097e+00 3.726738464201073686e+00 1.870789947710693957e+00 1.314409465219421383e-02 7.483757580791914776e+00 5.857714171386468362e-03 3.718142740388608924e+00 7.459277985544707334e+00 4.581005963278907828e-02 8.396660414962345276e-02 1.929203178089649029e+00 5.587767281485188420e+00 5.571391018241904192e+00 5.628535566810088930e+00 3.704748798759137873e+00 3.742203513499604561e+00 1.819811725048097406e+00 1.905676112126266419e+00 1.847190499774489014e+00 3.778332695192864410e+00 5.578341870348167753e+00 2.074089956908053978e-02 3.744553698132957908e+00 3.755970558521971814e+00 3.672269778975808308e+00 5.667121236879194335e+00 1.886808122049986158e+00 1.828041867972014733e+00 5.639335118024032312e+00 7.469110499534884262e+00 5.679945465152548500e+00 5.618072892142450314e+00 7.466874704772215487e+00 7.445277722518664376e+00 1.862471316182386261e+00 1.902253966289767950e+00 3.721504702823970057e+00 6.188949713263862396e-02 3.706391258515989939e+00
1.824181561825342079e+00 5.629244525280554079e+00 3.727568203225174681e+00 3.715792898147930678e+00 1.848888078658793566e+00 5.589521455345420442e+00 1.875955599767733739e+00 6.506539659556900834e-03 1.895744569724978179e+00 1.885665149436396959e+00 1.887507668939698569e+00 5.272938454823548893e-02 5.623144353718000588e+00 1.872364033245474749e-02 5.594511397266259678e+00 5.587444989472514778e-02 3.782347936267519195e+00 7.469155190425607493e+00 5.604142252900649268e+00 5.518671843753553130e-02 1.874829548908845123e+00 1.781840332439855290e+00 3.739830234807366871e+00 1.886844215591551466e+00 5.641518295450391740e+00 3.739736100589678980e+00 5.636126896490604388e+00 5.588244338698290292e+00 1.843866811984123721e+00 3.747614201284601432e+00 3.226626348549047063e-02 5.583683627806680150e+00 5.595627403062529481e+00 4.718609771789821633e-02 5.624908015642779091e+00 1.858020026759606314e+00 1.876781813506043450e+00 1.862620618762895974e+00 3.672185782072074467e+00 1.888406518509231580e+00 7.499034479313418267e+00 5.530192349667447438e+00 1.198619687278191549e-02 1.580700280840183214e-02 3.706765721494513333e+00 5.577202044127012925e+00 1.887022472032955367e+00 7.470446040199213655e+00 3.682435548079968424e+00 3.783141955080238095e+00 4.449958706166667888e-02 3.691388091494852031e+00 3.724840026058338083e+00 3.710792220341057490e+00 3.711487773931247514e+00 5.629343141632920045e+00 5.610209829828941785e+00 5.635481758815110709e+00 3.726758470098294307e+00 1.870799948955731651e+00 1.314410885670702460e-02 7.483767587847429681e+00 5.867707100794574727e-03 3.718142743888363189e+00 7.459247985552380555e+00 4.581008080165167168e-02 8.397661834225467192e-02 1.929213186300900773e+00 5.587777259042680633e+00 5.571361004073035694e+00 5.628525556287363507e+00 3.704738851945480693e+00 3.742203480424240336e+00 1.819831710926837154e+00 1.905656098042300073e+00 1.847220516276526503e+00 3.778322705720704722e+00 5.578351831274400041e+00 2.073088537644931020e-02 3.744543689921706608e+00 3.755960580964480489e+00 3.672289750543019426e+00 5.667101225079638205e+00 1.886788105447336106e+00 1.828101869067309870e+00 5.639325124961010793e+00 7.469110414359669825e+00 5.679875509015843704e+00 5.618092905221394595e+00 7.466904798220146411e+00 7.445277672905617372e+00 1.862501295000496215e+00 1.902223945163818097e+00 3.721524692095448117e+00 6.184949239627020312e-02 3.706381256011610947e+00
1.824281553334937245e+00 5.629184529795194791e+00 3.727558091858034217e+00 3.715762924259432332e+00 1.848928089297497523e+00 5.589541473207413347e+00 1.876015522840956296e+00 6.506511303615569730e-03 1.895694477564997760e+00 1.885665149436396959e+00 1.887507668939698569e+00 5.272938454823548893e-02 5.623114406866446480e+00 1.866365805480725559e-02 5.594541485676821857e+00 5.591448525573290695e-02 3.782307955016841028e+00 7.469175157134481324e+00 5.604082213858154304e+00 5.512669034424320935e-02 1.874799683520985472e+00 1.781890301638252572e+00 3.739830226469906371e+00 1.886824138760575087e+00 5.641488277781770755e+00 3.739756090059281224e+00 5.636116928508084989e+00 5.588234304468222113e+00 1.843896796704569185e+00 3.747594195516264826e+00 3.226627885658802514e-02 5.583683634864752499e+00 5.595637403048224101e+00 4.715608354903016303e-02 5.624898005120052780e+00 1.858010079945949133e+00 1.876791793456725310e+00 1.862660612850330022e+00 3.672175738489311669e+00 1.888426595340956027e+00 7.499034516915254578e+00 5.530242318852091721e+00 1.196621226764264280e-02 1.580700755500066834e-02 3.706775752224043430e+00 5.577202074869208381e+00 1.887022486149100287e+00 7.470466040170604671e+00 3.682415575346172698e+00 3.783171966877235892e+00 4.451959660802937840e-02 3.691388071457414988e+00 3.724880018990035513e+00 3.710782192130211765e+00 3.711497790457047863e+00 5.629333149849285789e+00 5.610219821499007331e+00 5.635451756517585231e+00 3.726778466625968900e+00 1.870799980958907760e+00 1.314410769012227913e-02 7.483777587844871348e+00 5.867700044507043883e-03 3.718142765092384838e+00 7.459197992623241014e+00 4.582011606878497179e-02 8.398666327708102786e-02 1.929223208628296993e+00 5.587807236571562086e+00 5.571300989939812709e+00 5.628515542297428453e+00 3.704728951247574287e+00 3.742203430811193332e+00 1.819861689744947109e+00 1.905626076916350664e+00 1.847280546947432267e+00 3.778322726771270457e+00 5.578371739014289510e+00 2.072085697930527159e-02 3.744523674654939960e+00 3.755940610477581210e+00 3.672329739790734404e+00 5.667061222654743879e+00 1.886778072199122525e+00 1.828201854743981114e+00 5.639315129462863396e+00 7.469100267711092478e+00 5.679775567119294877e+00 5.618122921888643262e+00 7.466944930713236950e+00 7.445277592550374912e+00 1.862531259702461250e+00 1.902173924066477451e+00 3.721564683676333196e+00 6.178948997649057889e-02 3.706371236875972031e+00
1.824411547142057000e+00 5.629104537782161799e+00 3.727547948487717644e+00 3.715722949216229587e+00 1.848978098777907197e+00 5.589561499385035326e+00 1.876085399789004793e+00 6.506462929193792405e-03 1.895614370076013744e+00 1.885665162474325030e+00 1.887527675992655807e+00 5.273937042135606879e-02 5.623074491935554420e+00 1.859368874012540598e-02 5.594591596486981899e+00 5.595453598783821370e-02 3.782267980824236098e+00 7.469205123829049775e+00 5.604002160634909302e+00 5.505665288396249801e-02 1.874759855947551790e+00 1.781970270801004785e+00 3.739830221599655946e+00 1.886804015813847712e+00 5.641448228216249028e+00 3.739786064254443598e+00 5.636086968869802760e+00 5.588224238329374316e+00 1.843936767306312285e+00 3.747554182720248761e+00 3.226629422768558658e-02 5.583683641922824847e+00 5.595647403033920497e+00 4.711605402094613121e-02 5.624887986383519056e+00 1.857990148518513518e+00 1.876801772240822563e+00 1.862710606935206403e+00 3.672165687850261317e+00 1.888456704069578995e+00 7.499024569791528982e+00 5.530312279692497057e+00 1.194621345799055760e-02 1.579700524608470061e-02 3.706775790024164685e+00 5.577202137520182568e+00 1.887012514383947348e+00 7.470506047169675590e+00 3.682395601445791478e+00 3.783211978671677134e+00 4.453959909810455142e-02 3.691398033703829906e+00 3.724940006014282101e+00 3.710762134449178351e+00 3.711517806970966671e+00 5.629323159221390149e+00 5.610229797797156692e+00 5.635401753077240450e+00 3.726808460839611925e+00 1.870800036649630016e+00 1.314410535695278992e-02 7.483797587839756460e+00 5.867685931931981326e-03 3.718142787462990650e+00 7.459137999696658916e+00 4.583015839220579146e-02 8.401670818814419017e-02 1.929233233267167114e+00 5.587837183356610282e+00 5.571210960471136175e+00 5.628505517782208756e+00 3.704709096679723590e+00 3.742203363493878943e+00 1.819911661499869604e+00 1.905586041692130417e+00 1.847360578761159333e+00 3.778312750135867759e+00 5.578391623066631944e+00 2.070082976062756139e-02 3.744493658234993916e+00 3.755920662418886558e+00 3.672379699450957435e+00 5.667011207271999140e+00 1.886748030663888187e+00 1.828331841551592563e+00 5.639295137434484850e+00 7.469090082003050135e+00 5.679625670228864109e+00 5.618162953948867333e+00 7.467015132966711377e+00 7.445277494490866843e+00 1.862581217341238826e+00 1.902113888870865965e+00 3.721614663373992826e+00 6.169948166204815287e-02 3.706351223551583640e+00
1.824581544401404631e+00 5.628994550399748498e+00 3.727537764798595443e+00 3.715672987222837342e+00 1.849048114155537270e+00 5.589591526807693889e+00 1.876175231766582074e+00 6.496395694585960223e-03 1.895504238942396169e+00 1.885665192049935435e+00 1.887537690106243060e+00 5.275936333645981496e-02 5.623014594732691940e+00 1.850372417715760026e-02 5.594651752139244927e+00 5.601458902934985246e-02 3.782208008948219735e+00 7.469235073892360965e+00 5.603892079038284457e+00 5.496659784544181970e-02 1.874700088631052752e+00 1.782070225735481017e+00 3.739820211985363851e+00 1.886773869193878239e+00 5.641388160970224774e+00 3.739836029074945500e+00 5.636047025877084948e+00 5.588204171035823897e+00 1.843986736749760880e+00 3.747514178239863103e+00 3.226632496988069559e-02 5.583683656038969545e+00 5.595667403005311513e+00 4.705602451662527219e-02 5.624877965335511654e+00 1.857970247834911826e+00 1.876811748691750159e+00 1.862780601014967230e+00 3.672155623098635857e+00 1.888496844695100263e+00 7.499004637942243257e+00 5.530402232188665224e+00 1.191621349363531160e-02 1.579700177887433804e-02 3.706775836139915903e+00 5.577202199004572591e+00 1.887012542616236965e+00 7.470546047112457622e+00 3.682365641761804920e+00 3.783261996365895996e+00 4.456960988950484787e-02 3.691407979412562046e+00 3.725009985977898008e+00 3.710732069726161875e+00 3.711537824651470974e+00 5.629303168596051066e+00 5.610239781151593164e+00 5.635351765007991176e+00 3.726838462111327743e+00 1.870810092326048224e+00 1.314411722829611322e-02 7.483827594890155588e+00 5.877664748765027737e-03 3.718142813333350727e+00 7.459048006777750928e+00 4.584022188448921148e-02 8.404675193262262090e-02 1.929253257903479568e+00 5.587867123085371368e+00 5.571110916809828950e+00 5.628485485055739090e+00 3.704679264554382012e+00 3.742193295021861932e+00 1.819971632096497594e+00 1.905546014783539688e+00 1.847460642459903157e+00 3.778292789930639994e+00 5.578431483402819246e+00 2.068078717085229321e-02 3.744463634756976411e+00 3.755890714374496397e+00 3.672439644894785804e+00 5.666951185989474560e+00 1.886707980827328823e+00 1.828501828311677402e+00 5.639275150029052774e+00 7.469079834807340390e+00 5.679445787578588423e+00 5.618212989597396678e+00 7.467095374265344532e+00 7.445277378727089612e+00 1.862651167916828721e+00 1.902043839576983864e+00 3.721684645381058587e+00 6.158947566419450959e-02 3.706331193595935769e+00
1.824801529730001093e+00 5.628854561745619378e+00 3.727517525433055923e+00 3.715613039445838872e+00 1.849128135432945186e+00 5.589631562531678810e+00 1.876295032966319498e+00 6.486317811043669848e-03 1.895374061721636361e+00 1.885665205087863505e+00 1.887557697159200076e+00 5.276934920958039482e-02 5.622954716400681008e+00 1.838376667993502772e-02 5.594721928946067457e+00 5.608467513434449436e-02 3.782128052349200242e+00 7.469285022667720320e+00 5.603751970234862156e+00 5.484652523123876439e-02 1.874620388627776135e+00 1.782190164108511832e+00 3.739820197621915643e+00 1.886733684788091558e+00 5.641328093724199633e+00 3.739885993895446958e+00 5.636007082884367136e+00 5.588184086038006093e+00 1.844056699130022237e+00 3.747464159661206384e+00 3.226634034097825704e-02 5.583683663097041894e+00 5.595677402991007021e+00 4.699597964120686561e-02 5.624867937229430126e+00 1.857940347165614625e+00 1.876821708604995420e+00 1.862860588034098708e+00 3.672135551305027779e+00 1.888547014884350173e+00 7.498994721362280735e+00 5.530512162228020223e+00 1.187622891225920997e-02 1.579700421399959573e-02 3.706785897613279701e+00 5.577202292397743122e+00 1.887002584967229391e+00 7.470606054082918668e+00 3.682335695115747320e+00 3.783332021113071875e+00 4.460960655402571029e-02 3.691417922788125416e+00 3.725099965936399027e+00 3.710701990890569846e+00 3.711557843498559439e+00 5.629273177973271203e+00 5.610249771562316745e+00 5.635281774629335771e+00 3.726888461066454106e+00 1.870820164633725247e+00 1.315412792117310464e-02 7.483867603093734999e+00 5.887621137393530581e-03 3.718142840370295854e+00 7.458948013861398607e+00 4.585029243306015800e-02 8.408682524082983223e-02 1.929283297809115894e+00 5.587917040357319287e+00 5.570970873196048778e+00 5.628465447706322955e+00 3.704649493916708280e+00 3.742193194629183317e+00 1.820041589730159615e+00 1.905485965475353094e+00 1.847580704968299070e+00 3.778282832034328909e+00 5.578471305938885294e+00 2.065074692612809890e-02 3.744413610128336956e+00 3.755860795814597974e+00 3.672529592636139650e+00 5.666871168179277163e+00 1.886667898987593350e+00 1.828711816190820905e+00 5.639245167249125501e+00 7.469069533180251241e+00 5.679215949934429020e+00 5.618273040638901428e+00 7.467205685324363351e+00 7.445277215683436367e+00 1.862731097315643680e+00 1.901943783269727239e+00 3.721764615504900231e+00 6.144946377167806451e-02 3.706301169451538424e+00
1.825071517332359061e+00 5.628694578875289345e+00 3.727497223320505704e+00 3.715533089359434715e+00 1.849228154393764756e+00 5.589671614886921880e+00 1.876434803400098827e+00 6.476228122830130288e-03 1.895223853785650947e+00 1.885665233496889082e+00 1.887577711270229885e+00 5.278933506839660755e-02 5.622864887717361704e+00 1.823382689739214135e-02 5.594822172994589060e+00 5.616476356062705816e-02 3.782028096911032478e+00 7.469334970183737710e+00 5.603591849583862583e+00 5.469644325516255512e-02 1.874530740551500596e+00 1.782340103612482629e+00 3.739810186728235397e+00 1.886693461322841214e+00 5.641248009964256127e+00 3.739945949343845388e+00 5.635957163593499963e+00 5.588153984514387496e+00 1.844136653293916517e+00 3.747404149412482788e+00 3.226637108317337299e-02 5.583683677213187480e+00 5.595697402962398925e+00 4.691591941845404956e-02 5.624857899753804347e+00 1.857900477254455618e+00 1.876841666173189926e+00 1.862960576203851248e+00 3.672115450026926631e+00 1.888607232341595887e+00 7.498974827114830433e+00 5.530652083908831784e+00 1.182624550934943848e-02 1.578700549594567668e-02 3.706795981514847682e+00 5.577202401162010936e+00 1.886992634376293720e+00 7.470676061039076110e+00 3.682295747314985324e+00 3.783412044701953914e+00 4.464961153417605633e-02 3.691427863830518685e+00 3.725209945889785157e+00 3.710671897942403152e+00 3.711587877704864535e+00 5.629243195564298752e+00 5.610269746586819650e+00 5.635201783095976857e+00 3.726948458863287073e+00 1.870830245257031788e+00 1.315413862593168420e-02 7.483907610141576683e+00 5.897592897939044412e-03 3.718142870906995245e+00 7.458818020952720396e+00 4.586038415049370487e-02 8.413691390825303595e-02 1.929313345928561407e+00 5.587976942243044753e+00 5.570810815401517679e+00 5.628435400989917348e+00 3.704609761093460740e+00 3.742193061161140033e+00 1.820131533242562050e+00 1.905405902083200154e+00 1.847740783966850930e+00 3.778262885821594530e+00 5.578521074029266558e+00 2.061067595109037504e-02 3.744363570227815519e+00 3.755810892655225608e+00 3.672629528494268492e+00 5.666761144474416589e+00 1.886617822959107960e+00 1.828971789806043580e+00 5.639205183192367521e+00 7.469049161764167444e+00 5.678926140770585995e+00 5.618353098857015837e+00 7.467336074473698737e+00 7.445277020731003503e+00 1.862821012595756498e+00 1.901823719934791601e+00 3.721864589104732168e+00 6.127945419830800600e-02 3.706271135732169153e+00
1.825401494158668925e+00 5.628494595891539554e+00 3.727466857215907758e+00 3.715433166539233945e+00 1.849358185151582568e+00 5.589731676788527892e+00 1.876614496930863574e+00 6.466107767201684578e-03 1.895023584433519481e+00 1.885665260739330051e+00 1.887607725378701806e+00 5.280931387092529378e-02 5.622765076750191326e+00 1.806389302230009333e-02 5.594932446513300128e+00 5.627488386004471377e-02 3.781918159058777817e+00 7.469404878611682896e+00 5.603381701749826860e+00 5.451634139193039380e-02 1.874421190532281400e+00 1.782530012326731805e+00 3.739800166341357368e+00 1.886633176398531786e+00 5.641147908523809207e+00 3.740025895417582014e+00 5.635897260948195431e+00 5.588123849915403341e+00 1.844236593336550767e+00 3.747324125079793511e+00 3.226641602988129798e-02 5.583693698384847970e+00 5.595727395863197451e+00 4.681584501495160422e-02 5.624837852911189984e+00 1.857850645157722580e+00 1.876861604870532219e+00 1.863090557307858663e+00 3.672085327594268200e+00 1.888687480517273753e+00 7.498954949294999395e+00 5.530811974817200216e+00 1.177624556875736354e-02 1.578699971726173559e-02 3.706796058374433045e+00 5.577202526463961085e+00 1.886972690845988287e+00 7.470756075037216171e+00 3.682245829101716605e+00 3.783502081248685922e+00 4.470962480134715866e-02 3.691447771785666188e+00 3.725339912877648096e+00 3.710621775538352818e+00 3.711627911899287646e+00 5.629213214311063140e+00 5.610289706239406371e+00 5.635101791586381914e+00 3.727008454348645916e+00 1.870840356624172474e+00 1.316414815222393189e-02 7.483957618342597762e+00 5.907542230280016411e-03 3.718142920314546185e+00 7.458658035109786866e+00 4.588049702248547801e-02 8.418703215128657547e-02 1.929353408161594396e+00 5.588056837043875902e+00 5.570610742283415462e+00 5.628405342592492033e+00 3.704560089772185094e+00 3.742192909988830252e+00 1.820241469691776803e+00 1.905315824592776597e+00 1.847930878300855895e+00 3.778242950134143907e+00 5.578580795989592112e+00 2.057060730922214212e-02 3.744293530332409414e+00 3.755761003608428350e+00 3.672749434753022957e+00 5.666641108967442442e+00 1.886547723271684740e+00 1.829291763349976785e+00 5.639165206070030578e+00 7.469028698116582099e+00 5.678576376624739019e+00 5.618443171312367923e+00 7.467496548755336860e+00 7.445276791536620031e+00 1.862940913752051175e+00 1.901683635459602284e+00 3.721984551976042166e+00 6.106943988856954747e-02 3.706231099508420890e+00
1.825791475580028633e+00 5.628254619852437912e+00 3.727436427104958483e+00 3.715313256780724771e+00 1.849508220650883716e+00 5.589801755307088449e+00 1.876824144312691400e+00 6.455969704566367692e-03 1.894793269008550274e+00 1.885665303352868527e+00 1.887637746545246298e+00 5.283929265914961981e-02 5.622645301215317915e+00 1.785397096210971854e-02 5.595062778972385686e+00 5.640502300655100137e-02 3.781778230583741518e+00 7.469484777450351665e+00 5.603141527875580508e+00 5.429622195557346626e-02 1.874291714882571958e+00 1.782749921005336358e+00 3.739790149421689858e+00 1.886572845358471362e+00 5.641027775198344862e+00 3.740115825061142818e+00 5.635817382019046917e+00 5.588083697624036006e+00 1.844356525160260496e+00 3.747234102020750690e+00 3.226646214317397537e-02 5.583693719559065016e+00 5.595757395820284863e+00 4.669577063521232474e-02 5.624817803757101053e+00 1.857800843804823465e+00 1.876891541222823534e+00 1.863240539562487808e+00 3.672055175677117145e+00 1.888777791332044931e+00 7.498925100865750260e+00 5.531011857352723382e+00 1.170626218961076312e-02 1.577699868773424149e-02 3.706806173019835171e+00 5.577202681341521640e+00 1.886962761429269886e+00 7.470856081950459249e+00 3.682185922771671560e+00 3.783622123690080663e+00 4.477963225726831059e-02 3.691467676241058982e+00 3.725499879857837371e+00 3.710571631965440265e+00 3.711667948426879526e+00 5.629163233062943306e+00 5.610309680004567312e+00 5.634981796600797566e+00 3.727098447514858304e+00 1.870850477566284198e+00 1.316415652381302051e-02 7.484017625385324557e+00 5.917499878250469421e-03 3.718142973221851832e+00 7.458468049274525669e+00 4.590063106333984455e-02 8.425715037055696299e-02 1.929393472706100843e+00 5.588136701100871129e+00 5.570370655008327176e+00 5.628365272516605344e+00 3.704500487009169341e+00 3.742182725753036898e+00 1.820371390863994465e+00 1.905205748390303766e+00 1.848150989136897904e+00 3.778213024974532708e+00 5.578650478876149954e+00 2.052050793704037965e-02 3.744223475165121773e+00 3.755691129962156705e+00 3.672899344475887951e+00 5.666491076935351145e+00 1.886477598637372965e+00 1.829671737989205127e+00 5.639115235884672117e+00 7.469008149293781429e+00 5.678166655163720655e+00 5.618563257999844573e+00 7.467687094056700836e+00 7.445276498524678210e+00 1.863080786670941347e+00 1.901503536929055604e+00 3.722134504106949127e+00 6.081942199819945216e-02 3.706181045408375674e+00
1.729340000000000099e+00 5.496159999999999712e+00 3.810329999999999995e+00 3.699980000000000047e+00 1.760299999999999976e+00 5.708929999999999616e+00 1.904209999999999958e+00 -1.565000000000000072e-02 1.929519999999999902e+00 1.907180000000000097e+00 1.853280000000000038e+00 5.859999999999999931e-02 5.696010000000000240e+00 -5.337000000000000077e-02 5.714089999999999669e+00 -2.879999999999999921e-02 3.712779999999999969e+00 6.409999999999999899e-03 5.732310000000000016e+00 3.079000000000000140e-02 1.916400000000000103e+00 1.741819999999999924e+00 3.657760000000000122e+00 1.928790000000000004e+00 5.657300000000000217e+00 3.608729999999999993e+00 5.755130000000000301e+00 5.655689999999999884e+00 1.774259999999999948e+00 3.828460000000000196e+00 -1.522799999999999987e-01 5.424909999999999677e+00 5.714249999999999829e+00 -7.023999999999999688e-02 5.511669999999999625e+00 1.893869999999999942e+00 1.848600000000000021e+00 1.787029999999999896e+00 3.760240000000000027e+00 1.733959999999999946e+00 7.311309999999999754e+00 5.645539999999999559e+00 -4.578000000000000125e-02 -2.803999999999999895e-02 3.789800000000000058e+00 5.587100000000000399e+00 1.768329999999999957e+00 7.633790000000000298e+00 3.725839999999999819e+00 3.722919999999999785e+00 4.644999999999999823e-02 3.678030000000000133e+00 3.623549999999999827e+00 3.796030000000000015e+00 3.634959999999999969e+00 5.471989999999999910e+00 5.736830000000000318e+00 5.702130000000000365e+00 3.643580000000000041e+00 1.908570000000000100e+00 -1.099699999999999983e-01 7.364200000000000301e+00 6.729999999999999871e-03 3.699669999999999792e+00 7.340939999999999799e+00 4.818999999999999673e-02 -3.976999999999999980e-02 1.837550000000000017e+00 5.707729999999999748e+00 5.581999999999999851e+00 5.487639999999999851e+00 3.793340000000000156e+00 3.783570000000000100e+00 1.769490000000000007e+00 1.946020000000000083e+00 1.753090000000000037e+00 3.650630000000000042e+00 5.699639999999999596e+00 -9.832000000000000461e-02 3.639170000000000016e+00 3.839900000000000091e+00 3.657230000000000203e+00 5.555889999999999773e+00 1.926760000000000028e+00 1.670039999999999969e+00 5.460849999999999760e+00 7.635449999999999626e+00 5.628459999999999575e+00 5.443389999999999951e+00 7.632679999999999687e+00 -5.392999999999999877e-02 1.809940000000000104e+00 1.941289999999999960e+00 3.767729999999999801e+00 1.388999999999999957e-02 3.787180000000000213e+00
1.730380000000000029e+00 5.497959999999999958e+00 3.808580000000000076e+00 3.700060000000000127e+00 1.761800000000000033e+00 5.711549999999999905e+00 1.903080000000000105e+00 -1.851999999999999827e-02 1.928639999999999910e+00 1.906190000000000051e+00 1.855010000000000048e+00 5.736000000000000126e-02 5.694819999999999993e+00 -5.360000000000000181e-02 5.711839999999999584e+00 -2.784999999999999976e-02 3.710789999999999811e+00 8.829999999999999308e-03 5.734499999999999709e+00 3.088000000000000120e-02 1.916179999999999994e+00 1.742289999999999894e+00 3.659800000000000164e+00 1.926600000000000090e+00 5.659550000000000303e+00 3.608530000000000015e+00 5.755069999999999908e+00 5.655330000000000190e+00 1.774100000000000010e+00 3.826169999999999849e+00 -1.532100000000000128e-01 5.425849999999999618e+00 5.714590000000000281e+00 -7.048000000000000098e-02 5.512640000000000207e+00 1.892800000000000038e+00 1.848270000000000080e+00 1.786010000000000097e+00 3.759930000000000216e+00 1.734280000000000044e+00 7.309999999999999609e+00 5.645080000000000098e+00 -4.610999999999999821e-02 -2.892000000000000126e-02 3.790970000000000173e+00 5.587729999999999642e+00 1.769670000000000076e+00 7.634909999999999641e+00 3.727230000000000043e+00 3.724139999999999784e+00 4.859000000000000125e-02 3.678310000000000191e+00 3.624010000000000176e+00 3.797039999999999971e+00 3.632089999999999819e+00 5.473779999999999646e+00 5.736089999999999911e+00 5.704139999999999766e+00 3.642490000000000006e+00 1.911270000000000024e+00 -1.076099999999999973e-01 7.362040000000000362e+00 6.930000000000000396e-03 3.700559999999999850e+00 7.343709999999999738e+00 4.916999999999999843e-02 -4.197000000000000036e-02 1.836799999999999988e+00 5.708459999999999646e+00 5.581240000000000201e+00 5.485829999999999984e+00 3.792159999999999975e+00 3.780450000000000088e+00 1.769900000000000029e+00 1.944080000000000030e+00 1.750340000000000007e+00 3.647539999999999782e+00 5.699639999999999596e+00 -9.896000000000000629e-02 3.640089999999999826e+00 3.838610000000000078e+00 3.658549999999999969e+00 5.553919999999999746e+00 1.926390000000000047e+00 1.669110000000000094e+00 5.462609999999999744e+00 7.636739999999999640e+00 5.628180000000000405e+00 5.441080000000000361e+00 7.632469999999999644e+00 7.597680000000000433e+00 1.810470000000000024e+00 1.943049999999999944e+00 3.770999999999999908e+00 1.430999999999999980e-02 3.788629999999999942e+00