-2.094291260100000045e+02
-2.094292365899999879e+02
-2.094294499899999948e+02
-2.094297755700000039e+02
-2.094302185100000031e+02
-2.094307976100000133e+02
-2.094315328399999885e+02
-2.094323978099999977e+02
-2.094333819899999867e+02
-2.094345771499999955e+02
-2.101659395400000108e+02
-2.101621824400000094e+02
-2.101561270999999920e+02
-2.101478430800000012e+02
-2.101373236899999881e+02
-2.101246324599999866e+02
-2.101097979300000134e+02
-2.100928689799999916e+02
-2.100739026599999875e+02
-2.100529531999999904e+02
-2.081153629199999955e+02
-2.081146193499999981e+02
-2.081112014800000054e+02
-2.081051648199999988e+02
-2.080965470099999948e+02
-2.080854100999999901e+02
-2.080718334199999902e+02
-2.080558989600000075e+02
-2.080377140699999927e+02
-2.080173826200000065e+02
-2.094582294299999887e+02
-2.094566357500000038e+02
-2.094527624899999978e+02
-2.094466572800000108e+02
-2.094383423900000025e+02
-2.094278706700000043e+02
-2.094152666800000020e+02
-2.094005812800000115e+02
-2.093839059500000133e+02
-2.093652972600000055e+02
-2.103146675399999879e+02
-2.103136075399999925e+02
-2.103102058899999918e+02
-2.103044807699999978e+02
-2.102964477600000066e+02
-2.102861270699999920e+02
-2.102735677100000089e+02
-2.102588130400000068e+02
-2.102419303700000057e+02
-2.102229647100000136e+02
-2.074039473699999974e+02
-2.074067390300000113e+02
-2.074062226000000067e+02
-2.074023962900000129e+02
-2.073952693500000066e+02
-2.073848891799999876e+02
-2.073713480499999946e+02
-2.073547400699999912e+02
-2.073351795899999956e+02
-2.073127986700000065e+02
-2.078012723500000050e+02
-2.078009956699999918e+02
-2.077979381899999964e+02
-2.077921474899999907e+02
-2.077836543299999903e+02
-2.077725570499999890e+02
-2.077589236500000140e+02
-2.077428435999999863e+02
-2.077244412699999998e+02
-2.077038254800000061e+02
-2.087111208599999941e+02
-2.087099475400000017e+02
-2.087065076700000077e+02
-2.087008616500000073e+02
-2.086930213500000093e+02
-2.086830505499999902e+02
-2.086709802100000104e+02
-2.086568797500000016e+02
-2.086408177099999932e+02
-2.086228769699999930e+02
-2.100774383199999988e+02
-2.100749812999999904e+02
-2.100702249400000028e+02
-2.100632066400000042e+02
-2.100539638299999865e+02
-2.100425344999999879e+02
-2.100289813400000014e+02
-2.100133532000000116e+02
-2.099957164900000066e+02
-2.099761354999999980e+02
-2.100068448799999885e+02
-2.100078347300000132e+02
-2.100067271000000062e+02
-2.100035496499999965e+02
-2.099983029800000054e+02
-2.099910151900000130e+02
-2.099817005799999947e+02
-2.099704113500000062e+02
-2.099572010900000123e+02
-2.099420912200000089e+02
-2.107352897099999893e+02
-2.107352922000000035e+02
-2.107352924500000029e+02
-2.107352927599999930e+02
-2.107352931199999944e+02
-2.107352937199999872e+02
-2.107352937199999872e+02
-2.107352929900000049e+02
-2.107352940199999978e+02
-2.107352969499999915e+02
-2.100816304100000025e+02
-2.100790351800000053e+02
-2.100736951199999965e+02
-2.100656681499999934e+02
-2.100549726000000135e+02
-2.100416791600000010e+02
-2.100258515600000067e+02
-2.100075666399999932e+02
-2.099869020300000102e+02
-2.099639346300000113e+02
-2.104708767299999863e+02
-2.104702902800000004e+02
-2.104674416000000008e+02
-2.104624571999999887e+02
-2.104553305299999977e+02
-2.104461221900000112e+02
-2.104348543899999981e+02
-2.104215862800000139e+02
-2.104063705799999866e+02
-2.103892626299999904e+02
-2.102834735700000124e+02
-2.102829073499999879e+02
-2.102805253200000095e+02
-2.102763452300000040e+02
-2.102703900600000111e+02
-2.102626858000000141e+02
-2.102532675600000118e+02
-2.102421621400000049e+02
-2.102293992200000048e+02
-2.102150419099999965e+02
-2.099711070600000085e+02
-2.099698738399999911e+02
-2.099671140499999922e+02
-2.099629030199999988e+02
-2.099572244100000091e+02
-2.099500734400000113e+02
-2.099414731100000040e+02
-2.099314371199999982e+02
-2.099199626099999989e+02
-2.099070789799999943e+02
-2.101988362900000027e+02
-2.101955907400000001e+02
-2.101901005699999985e+02
-2.101824182100000087e+02
-2.101725776099999905e+02
-2.101606182300000114e+02
-2.101465877900000123e+02
-2.101305436600000007e+02
-2.101125442100000100e+02
-2.100926299799999981e+02
-2.100507894899999997e+02
-2.100519915700000126e+02
-2.100508813200000020e+02
-2.100474923799999942e+02
-2.100418260799999928e+02
-2.100339161400000023e+02
-2.100237938900000074e+02
-2.100114853000000039e+02
-2.099970540099999994e+02
-2.099805679600000019e+02
-2.101193364400000121e+02
-2.101201092800000083e+02
-2.101192309500000022e+02
-2.101167149999999992e+02
-2.101125845200000128e+02
-2.101068415700000003e+02
-2.100995066499999950e+02
-2.100906060400000115e+02
-2.100801426200000037e+02
-2.100681521200000077e+02
-2.100663038099999937e+02
-2.100651967100000093e+02
-2.100622644100000116e+02
-2.100575261300000136e+02
-2.100509760299999868e+02
-2.100426418099999921e+02
-2.100325262400000099e+02
-2.100206727999999998e+02
-2.100071082999999987e+02
-2.099918564300000128e+02
-2.103382485500000030e+02
-2.103380267000000003e+02
-2.103358914799999866e+02
-2.103318775300000141e+02
-2.103259871500000031e+02
-2.103182449299999917e+02
-2.103086908299999891e+02
-2.102973477600000081e+02
-2.102842511199999933e+02
-2.102694345399999918e+02
-2.097280112800000040e+02
-2.097280787599999883e+02
-2.097282022299999937e+02
-2.097283905699999877e+02
-2.097286484200000132e+02
-2.097289685599999984e+02
-2.097293343899999911e+02
-2.097297371200000100e+02
-2.097304687099999967e+02
-2.097312356699999896e+02
-2.100631585300000097e+02
-2.100631753700000104e+02
-2.100615477499999884e+02
-2.100583044900000118e+02
-2.100534563299999888e+02
-2.100470065700000077e+02
-2.100389866499999982e+02
-2.100294278300000030e+02
-2.100183566700000029e+02
-2.100058061500000122e+02
-2.093537905700000010e+02
-2.093543679100000077e+02
-2.093534702800000105e+02
-2.093511511300000052e+02
-2.093473954600000013e+02
-2.093422281599999906e+02
-2.093356352499999957e+02
-2.093276419899999894e+02
-2.093182708299999888e+02
-2.093075286799999901e+02
-2.098412493399999903e+02
-2.098404897300000016e+02
-2.098382498100000078e+02
-2.098345559599999888e+02
-2.098294111600000065e+02
-2.098228221900000108e+02
-2.098148165700000050e+02
-2.098054129600000124e+02
-2.097946355500000095e+02
-2.097825103300000080e+02
-2.081649273799999946e+02
-2.081664316899999960e+02
-2.081671136100000012e+02
-2.081670331400000009e+02
-2.081661678000000109e+02
-2.081645216599999912e+02
-2.081621112599999890e+02
-2.081589383399999917e+02
-2.081549981500000115e+02
-2.081503130399999861e+02
-2.085497219099999882e+02
-2.085479874199999983e+02
-2.085451783100000114e+02
-2.085413234199999977e+02
-2.085364276100000041e+02
-2.085305003299999953e+02
-2.085235234900000023e+02
-2.085155263599999955e+02
-2.085065170800000089e+02
-2.084964952800000049e+02
-2.086866994400000124e+02
-2.086853699399999869e+02
-2.086830463000000009e+02
-2.086797926399999881e+02
-2.086756076800000130e+02
-2.086705111900000134e+02
-2.086645058000000006e+02
-2.086576109700000075e+02
-2.086498398900000097e+02
-2.086412151300000062e+02
-2.105570682999999974e+02
-2.105562263200000075e+02
-2.105535247599999877e+02
-2.105490090799999905e+02
-2.105427119899999866e+02
-2.105346530699999903e+02
-2.105248614399999951e+02
-2.105133797199999890e+02
-2.105002605100000039e+02
-2.104855274999999892e+02
-2.084847702499999968e+02
-2.084852283200000045e+02
-2.084844789900000137e+02
-2.084825570200000016e+02
-2.084794597899999928e+02
-2.084751893899999970e+02
-2.084697612900000081e+02
-2.084631850400000133e+02
-2.084554680200000121e+02
-2.084466335300000139e+02
-2.068566089800000043e+02
-2.068577721499999882e+02
-2.068580074399999944e+02
-2.068573963899999910e+02
-2.068559057299999893e+02
-2.068535499099999981e+02
-2.068503292000000044e+02
-2.068462508400000104e+02
-2.068413099100000068e+02
-2.068355223300000034e+02
