3.373785391403672507e-01 -2.092946211876783313e-01 -2.540390252339025379e-02 -9.952343947971649396e-02 1.278244023012654607e-01 5.949284416172625350e-02 1.810162567823183632e-01 -1.099929274095078589e-02 -2.018157671583581669e-01 1.104738555489667576e-03 2.842967204270624090e-02 2.343426954842377230e-02 -1.047494050695566697e-01 -1.827258229890377228e-01 1.168371476695352212e-01 1.101409368124890986e-01 -1.194005207478415070e-01 6.896107368807094518e-02 -2.099331163164801783e-01 -1.836444519163886457e-01 -1.132528541758680007e-01 1.897429733948051700e-01 -8.842388217485933413e-03 -5.742549689736722862e-02 -1.903177008586796060e-01 1.467478410630177199e-01 -1.232862128472175939e-01 -6.524948744344773177e-02 1.920451371938206031e-01 -1.478114626596123415e-01 -1.664059967664326340e-03 4.125426991728824676e-03 4.906271626765004723e-02 -1.908164116706853319e-01 -3.503934706556909723e-02 -8.797508904992445977e-02 4.206425056228119130e-02 2.419806179610848318e-01 -4.868151867808900163e-02 1.447066758306055079e-01 -4.428964773080342615e-02 3.209652890312866824e-01 -1.075551970865085138e-01 -1.175372966708104240e-02 1.533464194546092611e-02 7.836756242546941142e-04 -2.598730674112789685e-02 1.624203697657977674e-01 -5.265244307761202808e-02 1.015942808486743759e-01 6.008431255160950196e-02 1.731488190546101591e-02 1.412141707969020721e-01 -4.802135354967942971e-02 3.912406984946271982e-02 -3.804992814967514403e-02 2.057374735479466227e-02 -1.061817327464532473e-01 7.326228946578511314e-02 1.226952147364725361e-02 5.386541977540629071e-03 5.439336423613710947e-02 1.094334471718371067e-02 2.140567003445629604e-05 -1.697993701919668086e-01 1.937384043520279028e-02 6.256370587944537487e-02 4.045753453746973177e-02 7.826438944871222381e-02 -2.133410331767471024e-01 -3.436158745331383685e-02 -5.057989111066150262e-02 -2.203838959035073208e-03 6.327033652684665999e-02 -5.303434498155144838e-02 1.107303974530989416e-01 -1.352197503911171245e-02 3.558639003777120530e-02 -2.626865896280848253e-02 -3.863715092453678945e-02 -3.128639656032997790e-02 7.193934939326861178e-02 -7.266331196232847511e-02 -3.781834648075660388e-02 1.874692002506837818e-01 -2.446878944773945783e-02 -1.226290802914352385e-02 -2.051145202399839995e-01 5.634083630372367646e-02 9.317965104741600391e-02 3.889914088971539730e-04 7.000596690783464360e-02 -8.516713046699980749e-02 7.259499588045101315e-02 -1.240408248732931956e-01 -2.304607052992563992e-02
3.372063218130330053e-01 -2.081546801773164479e-01 -2.545944246452223891e-02 -9.947933485092949613e-02 1.275929840768170176e-01 5.889293884660337652e-02 1.807563978546995187e-01 -1.082333070103166581e-02 -2.004094899103575356e-01 7.649048519235831720e-04 2.798268509171629448e-02 2.350910750380248715e-02 -1.047325620970416676e-01 -1.821503214733635745e-01 1.161277145721020393e-01 1.097923772434793444e-01 -1.190277982141134533e-01 6.862534591188454436e-02 -2.095947998592807560e-01 -1.838508193312266559e-01 -1.124122273473161654e-01 1.893381973196667512e-01 -8.860333383979419192e-03 -5.728086183939355702e-02 -1.901197855255845615e-01 1.468918328542579976e-01 -1.233306187587756564e-01 -6.449989664159892777e-02 1.918354842550877015e-01 -1.474434663619892394e-01 -2.235065218890868594e-03 4.413373630029531099e-03 4.908139075728258638e-02 -1.908253218898735837e-01 -3.509730997730707569e-02 -8.792103436597502319e-02 4.169031263805200033e-02 2.409515481790314440e-01 -4.871821762204928130e-02 1.442473676369481761e-01 -4.444985107514264067e-02 3.207531078075608333e-01 -1.074212967402250751e-01 -1.141474179339333622e-02 1.529519680941269014e-02 1.702909806715931316e-03 -2.648157789387170502e-02 1.618843048953202413e-01 -5.256745106364354297e-02 1.017672962746484222e-01 6.009205980509713108e-02 1.773647071533060102e-02 1.408870135569137982e-01 -4.831377108628764211e-02 3.901413770182681623e-02 -3.791890278269342829e-02 2.062782393127156333e-02 -1.060973412948950229e-01 7.322647704660627255e-02 1.252141739170956752e-02 5.727561493156642196e-03 5.435441071480864167e-02 1.095284804003066916e-02 -2.568709550945159794e-04 -1.693755068893637028e-01 1.922596879960890986e-02 6.222170378807433816e-02 4.011701667649437281e-02 7.758715451469404278e-02 -2.123842396150247003e-01 -3.401155246019426509e-02 -5.068860902012631980e-02 -2.288193498622077653e-03 6.335162735625209096e-02 -5.260827208555166751e-02 1.104984432103813530e-01 -1.339797435743710075e-02 3.562565911249344214e-02 -2.591291265228813992e-02 -3.856122202309629488e-02 -3.144599720092142864e-02 7.144374372138381779e-02 -7.213816050220409060e-02 -3.752195491217738543e-02 1.869914463584707864e-01 -2.457073738316967876e-02 -1.211010149480390950e-02 -2.044046553530536048e-01 5.592383447662608448e-02 9.305985405872023442e-02 2.757786876017976176e-04 7.006485925474874310e-02 -8.530099820475556260e-02 7.238165374912783334e-02 -1.240180054797695580e-01 -2.326675902142824950e-02
3.363270821185944115e-01 -2.071848405966688900e-01 -2.554177561418135428e-02 -9.925241162615382196e-02 1.275899750224473439e-01 5.884259209249530220e-02 1.802588330588086596e-01 -1.103774109206870704e-02 -1.994915724532267676e-01 9.258954797031415055e-04 2.778468892776711149e-02 2.348799976047089705e-02 -1.046969865205809036e-01 -1.817144889353823900e-01 1.158843519266604394e-01 1.094151019442944212e-01 -1.188119568872149506e-01 6.846277325050625917e-02 -2.092084290923096057e-01 -1.838046018087775568e-01 -1.121678535126922477e-01 1.892882070677346373e-01 -8.640322985364145073e-03 -5.725794025103422835e-02 -1.897701547568916847e-01 1.466071478213804846e-01 -1.229419546909243377e-01 -6.432447493913867609e-02 1.914076753952993759e-01 -1.472014337075961132e-01 -2.120251811811004351e-03 4.193289575870643056e-03 4.894336941596284102e-02 -1.903459529832783048e-01 -3.503608171034224700e-02 -8.767681407461062892e-02 4.153742352810011612e-02 2.402265426804081339e-01 -4.870047087519043666e-02 1.440424123392576305e-01 -4.448131506796301760e-02 3.201294441617513753e-01 -1.068986180203680414e-01 -1.148583237294993793e-02 1.508044326390785977e-02 1.618838588359032982e-03 -2.634461304616060595e-02 1.618483373997796348e-01 -5.239975505488208424e-02 1.016701710253507945e-01 5.988687029611982487e-02 1.779761072660145452e-02 1.405690679773252405e-01 -4.824664056087713676e-02 3.890632441099224625e-02 -3.806883758749011332e-02 2.073809563494026856e-02 -1.060346198543918872e-01 7.328135938579953546e-02 1.234428199223818259e-02 5.785541250231287028e-03 5.415839770560833960e-02 1.092489722619983429e-02 -3.263328027304806438e-04 -1.691317139639951228e-01 1.894390309580351595e-02 6.188824834090247973e-02 4.032177980619364860e-02 7.730652214758865215e-02 -2.119531718221620009e-01 -3.388546456657352823e-02 -5.063536053621590927e-02 -2.272953322337419209e-03 6.330873708936286814e-02 -5.245526502024753374e-02 1.102493592190627869e-01 -1.338704125168750474e-02 3.557203418855427179e-02 -2.571978448551611937e-02 -3.834412919215222232e-02 -3.134644714340277527e-02 7.116574891625525312e-02 -7.190317786983847770e-02 -3.750069342568063818e-02 1.865394403354552477e-01 -2.460679455391578951e-02 -1.211638127150687846e-02 -2.037269323983034175e-01 5.560376893274648902e-02 9.285503793575689002e-02 2.113588258567346474e-04 6.967809746235888169e-02 -8.495262570675933544e-02 7.220182847838227391e-02 -1.234979184275193514e-01 -2.311384947273041612e-02
3.344269244095059435e-01 -2.056820535129943450e-01 -2.552991552426969388e-02 -9.881982575245489009e-02 1.272088148327371326e-01 5.854419575931366776e-02 1.794162725438991912e-01 -1.123972987673201550e-02 -1.979191325308176930e-01 1.154827211532066583e-03 2.762967590857693528e-02 2.343175719613252092e-02 -1.043130907903854626e-01 -1.806988971218104478e-01 1.152420441059519435e-01 1.087116075466435655e-01 -1.180192232598264723e-01 6.820129470744512590e-02 -2.083493303590386869e-01 -1.833489734075013644e-01 -1.114194945570815137e-01 1.883643964400399662e-01 -8.317326104389559382e-03 -5.710974801426384195e-02 -1.890161694840661877e-01 1.459676535557413724e-01 -1.223496614421218515e-01 -6.408869127594019055e-02 1.904460112389199933e-01 -1.467641167578859485e-01 -1.842513814031073068e-03 4.038193288078344850e-03 4.876105170946606893e-02 -1.893702920457741579e-01 -3.491365850202212545e-02 -8.723839955261891710e-02 4.134073389160761863e-02 2.388725901336101465e-01 -4.860021276870678947e-02 1.436134694526865485e-01 -4.449125726178208146e-02 3.188651087027682407e-01 -1.061069978586281493e-01 -1.159792079079765593e-02 1.482430520326221204e-02 1.445967731402774542e-03 -2.619102468723932819e-02 1.612934939238162835e-01 -5.185730091275571330e-02 1.011389551238069950e-01 5.949141085491635450e-02 1.766042046939393304e-02 1.397433797339757144e-01 -4.778184624279468995e-02 3.873442622962852688e-02 -3.818881720445885253e-02 2.079544462582835415e-02 -1.055150369255977438e-01 7.312221978132917022e-02 1.206059525233882379e-02 5.859652638173631911e-03 5.376943670726281460e-02 1.096805790209016453e-02 -3.560338300603258237e-04 -1.682479921007409840e-01 1.855432445498475177e-02 6.139838766053676289e-02 4.016731960830992321e-02 7.673538331936791135e-02 -2.108408682130026857e-01 -3.366618435609744497e-02 -5.042222473362815982e-02 -2.185488435779333813e-03 6.313095116809101792e-02 -5.216627356740351218e-02 1.096741891114028505e-01 -1.334618394422103053e-02 3.546488929749059410e-02 -2.553075087374630237e-02 -3.810707917705254827e-02 -3.130690496386619864e-02 7.090872365949552059e-02 -7.161820411612947190e-02 -3.749549947876028994e-02 1.854478647636418620e-01 -2.463672806732336226e-02 -1.184168187981582930e-02 -2.026652693181714704e-01 5.509471040971451045e-02 9.259676497082783286e-02 6.115568938187940142e-05 6.914741752240355366e-02 -8.447401958569306091e-02 7.154001209627602886e-02 -1.226538659904315293e-01 -2.293042766426178075e-02
3.315124892609123686e-01 -2.034774741439009105e-01 -2.564499189026204704e-02 -9.811251042066883310e-02 1.266535530727224135e-01 5.805649974816972508e-02 1.778786111318874652e-01 -1.143338620548575886e-02 -1.957606292048199026e-01 1.512776611646503809e-03 2.722967292040198717e-02 2.336848922312227683e-02 -1.036834777292135745e-01 -1.791733793496013416e-01 1.144539984728341619e-01 1.076835999398083749e-01 -1.170537536866809031e-01 6.761919259989085385e-02 -2.069371575006279385e-01 -1.825592289496690279e-01 -1.105982214543372866e-01 1.872485130957298738e-01 -7.764372646603470707e-03 -5.699142288838700277e-02 -1.880227526840276830e-01 1.453293852437905209e-01 -1.214767366897172296e-01 -6.381960129320417285e-02 1.893354836263416718e-01 -1.461387456657397277e-01 -1.523972854970376788e-03 3.806007180330129875e-03 4.844472550320198800e-02 -1.880975293331404452e-01 -3.458614314455655397e-02 -8.671858634775256314e-02 4.115408351604026710e-02 2.371556374237755727e-01 -4.850171388804190575e-02 1.430927847579589185e-01 -4.447954947171563200e-02 3.171198982924370857e-01 -1.049625250882809113e-01 -1.186004389414747895e-02 1.446073051131573778e-02 1.132020975277323168e-03 -2.591248088846648256e-02 1.606987790455060849e-01 -5.123011605741543267e-02 1.004116149927791468e-01 5.890595932743676599e-02 1.769994622050234667e-02 1.386885694326738250e-01 -4.751916212971076664e-02 3.852649295692053832e-02 -3.824481370297903859e-02 2.083480382112533336e-02 -1.048327944332902301e-01 7.276993249422136767e-02 1.154079447412448105e-02 5.814915758712725820e-03 5.316151988785485644e-02 1.109355591919408517e-02 -3.150308429651163815e-04 -1.671073842021388589e-01 1.799145557443112414e-02 6.068328909887493738e-02 3.985371557720512881e-02 7.599770279313450283e-02 -2.092403675420797804e-01 -3.325674686382515399e-02 -5.006697335460597031e-02 -2.085864520673871847e-03 6.296024003586604689e-02 -5.177330564902653948e-02 1.088429631208908260e-01 -1.324537882479367643e-02 3.532609563555114823e-02 -2.531865303293158107e-02 -3.776199124101835974e-02 -3.121747441916589844e-02 7.063953393961081018e-02 -7.141231148531779205e-02 -3.760323117922875075e-02 1.837770779846714664e-01 -2.452381817198433581e-02 -1.169319317737618942e-02 -2.012910963162821698e-01 5.446145658818322272e-02 9.201009883204479267e-02 -1.038435557834287485e-04 6.841081848097692319e-02 -8.387824521458915605e-02 7.069130028751821615e-02 -1.215447731223609634e-01 -2.265890551844300729e-02
3.272244451539955690e-01 -2.008688532271128424e-01 -2.547424163511730760e-02 -9.684078692890830953e-02 1.260725428360239542e-01 5.783195472961883549e-02 1.764742646448466679e-01 -1.235846244550422093e-02 -1.928018134122282679e-01 1.584702454447219555e-03 2.588103437477480909e-02 2.386933126048138010e-02 -1.033035503829810992e-01 -1.773087282218493155e-01 1.138960976004940034e-01 1.066525056652977421e-01 -1.150422684942154217e-01 6.705935698333588546e-02 -2.055274593595279586e-01 -1.818377063290660400e-01 -1.100908968452974646e-01 1.856487805675833269e-01 -7.728974692233618084e-03 -5.616298772302027315e-02 -1.886813527662344059e-01 1.450044750285600648e-01 -1.212404946871939865e-01 -6.323935481228189215e-02 1.887900121790518082e-01 -1.440682496088565301e-01 -1.124498303159471519e-03 1.428767562035558993e-03 4.662278673374068566e-02 -1.867612582207572869e-01 -3.577909097911104175e-02 -8.403079450718119181e-02 4.184006314644612284e-02 2.359731856523493154e-01 -4.925493480843590177e-02 1.447590903223278380e-01 -4.545956315720762336e-02 3.139910242229990711e-01 -1.036695595967091488e-01 -1.225538971746499561e-02 1.375702111277826538e-02 -4.083363129912021851e-05 -2.572999964095414732e-02 1.601574522808447421e-01 -5.071407707206727900e-02 1.013767442569052935e-01 5.900348506315910430e-02 1.770246277299694984e-02 1.373967379763872398e-01 -4.728025387218895426e-02 3.858659144227988280e-02 -3.907034648655250547e-02 2.148729504352067665e-02 -1.038729967424501938e-01 7.251793763831848594e-02 1.138949680310269788e-02 6.368622420168269099e-03 5.493254393751537124e-02 1.103545472657437021e-02 -7.768252207641542211e-04 -1.651221556799359058e-01 1.697376275866347914e-02 5.976552551836063210e-02 3.954324194985482654e-02 7.547833188809505156e-02 -2.064041622890403493e-01 -3.367434558601113681e-02 -4.996703802621665219e-02 -1.834776911997108243e-03 6.386089838119117512e-02 -5.229932804186277623e-02 1.074720876780148326e-01 -1.375196686792859793e-02 3.471955950746625358e-02 -2.529867021086467868e-02 -3.814201706464539349e-02 -3.125723696685628328e-02 7.015887585017639705e-02 -7.093164376014299277e-02 -3.799483217391153023e-02 1.813754316614860918e-01 -2.417737525280350477e-02 -1.208574666682663001e-02 -1.987470525378821906e-01 5.359326676142847634e-02 9.132080014620257147e-02 -1.234112052003648124e-04 6.806499623884301742e-02 -8.362297068796777089e-02 6.889734870624740493e-02 -1.199388735895915437e-01 -2.250528125373515986e-02
3.230530395004280186e-01 -1.977053551509490859e-01 -2.549706257928539485e-02 -9.591672457277068686e-02 1.253847240138576402e-01 5.651901793378931449e-02 1.744347461006190980e-01 -1.205262579998758743e-02 -1.898618901047232910e-01 3.498524218705949870e-03 2.507659093154914268e-02 2.434195796444639515e-02 -1.021922061218901445e-01 -1.754797207627120104e-01 1.123050961398534692e-01 1.053253226596688602e-01 -1.133608760091588813e-01 6.641720935173917040e-02 -2.037727986882779396e-01 -1.791715981535114965e-01 -1.088114738796564507e-01 1.844130247776110398e-01 -7.998561411712871647e-03 -5.537289682430644039e-02 -1.867465740905039639e-01 1.434684342767304777e-01 -1.202003830178730304e-01 -6.313208204837671145e-02 1.872799874218192551e-01 -1.427033467600540839e-01 -3.689865165700194198e-04 -1.319110563669646352e-04 4.553672541393152806e-02 -1.844142699015004494e-01 -3.524941847626865410e-02 -8.204877309735625346e-02 4.204860919782671402e-02 2.331948533792871092e-01 -4.975929512102456737e-02 1.443302037416600569e-01 -4.513329772557157782e-02 3.101864477460383740e-01 -1.015413380354021067e-01 -1.294353661977290862e-02 1.319723470098185282e-02 -1.799451221581515161e-03 -2.422640718243807348e-02 1.598700938116064951e-01 -4.951146294499221556e-02 9.914512876446840428e-02 5.793321007266594852e-02 1.761592641043609533e-02 1.351758223618845511e-01 -4.714555312529829928e-02 3.858815396809756743e-02 -3.928655864814043636e-02 2.118644481550922831e-02 -1.033360955337345594e-01 7.142943756685399270e-02 1.059243865810855119e-02 6.134926161664304954e-03 5.459763837779981616e-02 1.120805056902968687e-02 -3.897381878308831590e-04 -1.633614359590738752e-01 1.651192437404987168e-02 5.894994936396150825e-02 3.946987886341827428e-02 7.509863675522654436e-02 -2.039120494382619664e-01 -3.338252982258724938e-02 -4.922307357867732047e-02 -1.599433345262963333e-03 6.386508364080469013e-02 -5.207569242484523520e-02 1.072340814238126744e-01 -1.467104636915600273e-02 3.464657393776748168e-02 -2.509962060142174878e-02 -3.769348823184583835e-02 -3.054085847811721308e-02 6.997706712676093899e-02 -7.056655760520448573e-02 -3.784281017694312438e-02 1.774323463277844015e-01 -2.360384169373412611e-02 -1.209509052939721462e-02 -1.966950032420570205e-01 5.307804115635751663e-02 9.066200862881433620e-02 -4.890371864328219801e-04 6.679251667725734365e-02 -8.282450941326839622e-02 6.765862691092650039e-02 -1.167637204525709405e-01 -2.208461764672234665e-02
3.172654602117283562e-01 -1.937750835632240931e-01 -2.557394055881382841e-02 -9.459150979745348242e-02 1.242559982328048651e-01 5.527177581195900913e-02 1.716407711600476393e-01 -1.251274997922052420e-02 -1.853242642088231140e-01 4.593412308051170352e-03 2.489165683262037354e-02 2.425440540387059987e-02 -1.009605599165740164e-01 -1.727939740973632454e-01 1.103243045116153592e-01 1.033776486660625826e-01 -1.115097719060855197e-01 6.546889526125294900e-02 -2.010479053545057848e-01 -1.771858477516511376e-01 -1.067820609938504167e-01 1.823080135814275637e-01 -7.506325692597846586e-03 -5.469100763919675784e-02 -1.846169098657043095e-01 1.421138323261741665e-01 -1.185706981265036847e-01 -6.275105314154846847e-02 1.845562768495908890e-01 -1.409380075034542268e-01 7.026505542216182002e-05 -1.013709654967886141e-03 4.433267089356800195e-02 -1.821378649902986313e-01 -3.463301735193589220e-02 -8.043970494026106421e-02 4.207325774300551408e-02 2.298489755844468907e-01 -4.958897122013074255e-02 1.434156098362416865e-01 -4.473440950813499517e-02 3.059275659470022113e-01 -9.926411589617013809e-02 -1.367766840725942110e-02 1.263425171083593958e-02 -2.626111419448783416e-03 -2.365123460015024909e-02 1.588339570359603437e-01 -4.854889098379814444e-02 9.765950581196118641e-02 5.689177756764856458e-02 1.743233457409636145e-02 1.329763301930509400e-01 -4.639471743297343687e-02 3.828863800496517394e-02 -3.911682122388859123e-02 2.086378494097068659e-02 -1.021517341551008984e-01 7.078478853268020676e-02 9.477071567174010988e-03 5.988325699695631367e-03 5.351974729786789647e-02 1.138703694938796203e-02 -2.816416578049323331e-04 -1.611451790267384998e-01 1.544019243458378578e-02 5.764490668135169998e-02 3.887475793788004036e-02 7.372606082634204638e-02 -2.008488346930899504e-01 -3.245456706142380021e-02 -4.836543581198641389e-02 -1.690442402736995996e-03 6.340950366707016894e-02 -5.146523010906337015e-02 1.055691836833358016e-01 -1.446964104554858584e-02 3.407899010309847765e-02 -2.478611967857546894e-02 -3.697018332964041587e-02 -3.016085033370431018e-02 6.931020095260230496e-02 -6.980953325021628519e-02 -3.769831923702745419e-02 1.743604717243609215e-01 -2.333012622542961559e-02 -1.199056176181361594e-02 -1.936303207062772813e-01 5.213874216791054145e-02 8.973195950904201690e-02 -7.355789793670079258e-04 6.534353921724628256e-02 -8.133410562076225092e-02 6.625787410779457320e-02 -1.141776317653139527e-01 -2.172828930634003453e-02
3.116226017126884629e-01 -1.885263120899907663e-01 -2.638397264557670874e-02 -9.308326127852005472e-02 1.232507748152415206e-01 5.470616615334502469e-02 1.675566851124346834e-01 -1.321362875618664785e-02 -1.802254845415212081e-01 4.426814920043297893e-03 2.440787843790426237e-02 2.317900139833832876e-02 -9.903293525157712274e-02 -1.688500894382870821e-01 1.084235551996861335e-01 1.007276502775774490e-01 -1.097039006727822674e-01 6.430669234017850899e-02 -1.969021021847608133e-01 -1.763855779107925403e-01 -1.042509947640680168e-01 1.792031211845891980e-01 -5.498529784844680829e-03 -5.446765187619726639e-02 -1.810807086264119292e-01 1.398110486942804043e-01 -1.160135046766627986e-01 -6.184602027949137604e-02 1.809246624625937550e-01 -1.405398348490037863e-01 5.339099499221227870e-04 7.991958917808154742e-04 4.553868038373460464e-02 -1.786783185868990043e-01 -3.335521479122171423e-02 -8.129192574413583727e-02 4.037940884305987049e-02 2.251175141154704296e-01 -4.854402659396921116e-02 1.394778963579840492e-01 -4.451355958101517463e-02 3.035314593398497629e-01 -9.681630161951511326e-02 -1.342091478848143893e-02 1.188030685459768102e-02 -1.560911052825861853e-03 -2.353284878000663771e-02 1.563702326243153751e-01 -4.708948077569382468e-02 9.594785424889079595e-02 5.572774072496719522e-02 1.797411736392833317e-02 1.306020849013652674e-01 -4.541387305003077163e-02 3.727671575336068827e-02 -3.886388954845930443e-02 2.093416195619749592e-02 -1.005276184758507330e-01 7.039709147218083107e-02 8.220846965562529640e-03 5.794187051762170193e-03 5.014394018984962703e-02 1.169371846958759155e-02 -5.327334435756884111e-04 -1.588000433745651863e-01 1.425592148246850391e-02 5.554136797310273849e-02 3.801384339549866015e-02 7.136089845271638421e-02 -1.976921260662099222e-01 -3.066777998914456058e-02 -4.777254829877918690e-02 -1.408180995550081588e-03 6.146092967435376475e-02 -4.949028583316034818e-02 1.037069250644107044e-01 -1.341992003493880196e-02 3.399111157259427501e-02 -2.372531227238790924e-02 -3.548806955469133856e-02 -3.017552701874598800e-02 6.873717042932984966e-02 -6.905457355216554349e-02 -3.766097122881750109e-02 1.720806915112266244e-01 -2.382785754296229408e-02 -1.123270510297337543e-02 -1.905474703971637707e-01 5.023547091540368076e-02 8.883856289444139187e-02 -1.342991678247411553e-03 6.360856386833366183e-02 -7.978094518091569110e-02 6.467149685865129782e-02 -1.129114626009145306e-01 -2.122674382433002022e-02
3.050394401128775912e-01 -1.828643078665135868e-01 -2.670885035195505811e-02 -9.158375601867883853e-02 1.221277438809097865e-01 5.299765144862558786e-02 1.630381255324477863e-01 -1.337628762112888156e-02 -1.747434163719555622e-01 5.401418290155383939e-03 2.477437003357839049e-02 2.229724339226954455e-02 -9.645891231290838752e-02 -1.643068330249355946e-01 1.055253878349971808e-01 9.832058978528884774e-02 -1.074340050027842025e-01 6.313878847693148166e-02 -1.922984509460122782e-01 -1.745318094519022756e-01 -1.010893749620056931e-01 1.759616659715085296e-01 -4.008576655427433487e-03 -5.399872035269748238e-02 -1.763852283414117372e-01 1.366919432830459857e-01 -1.126865158989866639e-01 -6.113667118868584827e-02 1.767970621499584671e-01 -1.386720092344169430e-01 1.079556469371460714e-03 1.992160582680509509e-03 4.539799946079399462e-02 -1.749085963328837756e-01 -3.186882533598366096e-02 -8.136376942819750768e-02 3.906515157091453028e-02 2.194483183122953596e-01 -4.718500313284890169e-02 1.351874201044780122e-01 -4.354043776706634228e-02 2.987443605886939690e-01 -9.373329348745618184e-02 -1.313953807828850510e-02 1.190436936942113055e-02 -1.137713617906938989e-03 -2.246048799565352957e-02 1.539768218197814786e-01 -4.532362990759554455e-02 9.270289977154505534e-02 5.408431437992148455e-02 1.827166635484685914e-02 1.268540897335963258e-01 -4.403768308480641991e-02 3.615077231320927564e-02 -3.769639112218516053e-02 2.040906787488693322e-02 -9.881411802722744886e-02 6.945809298743604865e-02 6.522873450393702581e-03 5.204917803088592899e-03 4.575697334802914656e-02 1.183972080290918508e-02 -6.612661905573973160e-04 -1.561680806191515780e-01 1.280625931938743009e-02 5.334473746491490836e-02 3.697886662533890478e-02 6.892300192174380391e-02 -1.945333116825828101e-01 -2.874047759781208147e-02 -4.644976215500749156e-02 -1.140891669248237121e-03 5.951036665307403439e-02 -4.749731711387215893e-02 1.018738148790122866e-01 -1.224612088883908836e-02 3.400910081393913181e-02 -2.263461286325891414e-02 -3.368052549784687766e-02 -2.958547847710563117e-02 6.777234254917041678e-02 -6.808255475502526799e-02 -3.747517397460473076e-02 1.695540459909811171e-01 -2.375152509325162420e-02 -1.034387397607440355e-02 -1.867482075749583026e-01 4.874903539003793557e-02 8.759377036685375706e-02 -1.976116945758174884e-03 6.143215298099979904e-02 -7.742343249905497826e-02 6.334546067774021738e-02 -1.097620062493128018e-01 -2.036192723321358922e-02
-7.802699999999999914e-02 -1.584150000000000003e-01 3.483900000000000191e-02 6.516099999999999670e-02 5.156600000000000072e-02 1.071619999999999934e-01 -4.454299999999999926e-02 -4.048100000000000309e-02 -4.067500000000000282e-02 3.019499999999999962e-02 1.263200000000000087e-02 -2.271330000000000016e-01 -8.177000000000000240e-03 -3.859599999999999836e-02 1.328940000000000121e-01 -9.055699999999999861e-02 -1.324869999999999937e-01 -2.523000000000000069e-03 -5.196300000000000224e-02 -2.001539999999999986e-01 -2.273769999999999958e-01 1.836319999999999897e-01 4.205199999999999910e-02 -1.127760000000000012e-01 -1.828289999999999915e-01 8.324800000000000255e-02 1.567520000000000024e-01 1.341000000000000004e-02 3.591099999999999848e-02 8.262400000000000300e-02 2.050949999999999995e-01 1.443999999999999971e-03 -1.162920000000000065e-01 -1.282059999999999866e-01 -1.079959999999999948e-01 1.645919999999999883e-01 -4.196600000000000330e-02 2.904390000000000027e-01 1.451840000000000075e-01 -4.064199999999999757e-02 1.095900000000000069e-01 4.017709999999999892e-01 -4.160900000000000015e-02 6.766400000000000192e-02 -7.481500000000000650e-02 1.032440000000000024e-01 -3.935099999999999709e-02 -9.501700000000000423e-02 5.670900000000000246e-02 1.631479999999999875e-01 9.795600000000000140e-02 8.706999999999999462e-02 1.320079999999999865e-01 -1.678290000000000060e-01 4.543099999999999916e-02 -5.337999999999999690e-02 -1.278320000000000012e-01 -5.816199999999999842e-02 -2.283599999999999866e-02 -5.137499999999999706e-02 -9.354400000000000215e-02 1.066519999999999968e-01 8.930000000000000221e-04 -6.937799999999999523e-02 -1.031709999999999988e-01 4.306399999999999811e-02 1.520400000000000085e-01 -8.901399999999999590e-02 2.697599999999999998e-02 -5.980099999999999999e-02 2.764300000000000090e-02 -8.782099999999999629e-02 3.274099999999999927e-02 4.105799999999999728e-02 3.112999999999999882e-03 5.648199999999999749e-02 4.780800000000000327e-02 6.906199999999999839e-02 -2.416000000000000092e-02 -1.024319999999999953e-01 -1.716580000000000050e-01 -2.150300000000000128e-02 -3.519499999999999712e-02 1.176299999999999985e-01 5.034700000000000286e-02 1.546900000000000011e-02 -5.126800000000000107e-02 -5.628000000000000190e-03 -3.063600000000000004e-02 -2.583299999999999833e-02 -4.563000000000000216e-03 5.907099999999999851e-02 3.849999999999999950e-02 -3.709699999999999803e-02 -1.327329999999999899e-01 -4.227199999999999708e-02
-7.994400000000000117e-02 -1.783899999999999930e-01 4.784700000000000064e-02 6.046300000000000285e-02 4.774799999999999878e-02 8.378900000000000237e-02 -2.029500000000000054e-02 2.684000000000000188e-03 -2.906800000000000009e-02 3.765899999999999803e-02 -6.229999999999999644e-04 -2.158299999999999941e-01 -4.745000000000000086e-03 -3.398999999999999938e-02 1.603289999999999993e-01 -1.010420000000000068e-01 -1.178710000000000035e-01 -3.498300000000000021e-02 -7.740299999999999958e-02 -2.154109999999999914e-01 -2.372199999999999864e-01 1.844349999999999878e-01 1.369800000000000011e-02 -7.567799999999999527e-02 -2.055319999999999925e-01 8.673799999999999566e-02 1.509939999999999893e-01 9.445000000000000270e-03 4.365900000000000336e-02 1.108070000000000027e-01 2.056560000000000055e-01 -1.282499999999999959e-02 -1.228849999999999942e-01 -1.398270000000000068e-01 -1.252300000000000080e-01 1.807340000000000058e-01 -3.502700000000000258e-02 3.018640000000000212e-01 1.383500000000000008e-01 -4.008699999999999763e-02 1.408139999999999947e-01 4.057549999999999768e-01 -4.342200000000000226e-02 6.913800000000000501e-02 -7.964899999999999758e-02 1.037010000000000015e-01 -5.687899999999999900e-02 -1.034489999999999993e-01 5.285299999999999720e-02 1.667230000000000101e-01 7.646999999999999631e-02 6.377499999999999836e-02 1.116010000000000058e-01 -1.689390000000000058e-01 6.699299999999999700e-02 -8.523200000000000220e-02 -1.063390000000000030e-01 -7.641799999999999982e-02 -1.479800000000000039e-02 -7.312299999999999356e-02 -1.296569999999999945e-01 1.387220000000000120e-01 -1.779199999999999879e-02 -7.244599999999999651e-02 -1.241290000000000032e-01 3.682200000000000056e-02 1.644140000000000046e-01 -1.015640000000000015e-01 1.612900000000000097e-02 -5.117100000000000121e-02 4.737600000000000144e-02 -7.389900000000000635e-02 4.320399999999999935e-02 4.182000000000000300e-02 2.304900000000000004e-02 6.950000000000000622e-02 6.776400000000000479e-02 6.653699999999999892e-02 -6.008999999999999585e-03 -1.074279999999999957e-01 -1.559139999999999970e-01 -2.501099999999999851e-02 -1.589199999999999988e-02 1.156650000000000039e-01 6.523400000000000032e-02 -2.090000000000000115e-04 -6.563199999999999590e-02 -4.429999999999999910e-03 -1.626400000000000068e-02 -2.552199999999999955e-02 4.298799999999999844e-02 5.693299999999999750e-02 3.411999999999999755e-02 -6.115700000000000303e-02 -1.282230000000000036e-01 -5.787799999999999889e-02