5.529612616212578935e+00 5.479046604474216764e+00 3.614135823073373999e+00 5.472336361880523192e+00 2.135795674086354238e-03 1.842561975434497734e+00 3.638161233272437567e+00 1.835638119707208471e+00 1.845553272921526489e+00 3.703047096630357249e+00 7.256399914532964068e+00 1.379986244462354586e-02 5.520586800803187977e+00 3.658773902633102981e+00 5.490336931373934526e+00 5.566237097080248830e+00 7.273241880587361763e+00 5.493143814534414027e+00 1.054239859138731417e-01 5.421439910157386244e+00 5.488872910056008969e+00 1.861704345828338658e+00 5.440566121482246942e+00 2.600261147495314465e-02 5.533433457167888037e+00 1.844888906792429228e+00 7.284127089609932604e+00 3.664447809856827831e+00 1.828693382871224626e+00 5.446923234494726707e+00 5.503814249895079058e+00 3.654156676280649663e+00 1.838900516734231605e+00 1.833345402607169383e+00 1.055350065209512036e-04 5.487397091563678941e+00 3.655095334933575746e+00 3.666162201289278944e+00 3.657340511189047128e+00 1.438762321691489376e-01 7.288871917153648461e+00 3.629411888522124041e+00 1.800005562099988188e+00 1.832682570315067982e+00 6.351682648086059632e-03 5.099981674187271247e-02 1.851614594863397967e+00 1.852461970049898765e+00 5.521552123615020236e+00 5.452371606241193547e+00 1.831219149348879000e-02 5.503861793634420074e+00 1.813877683578728695e+00 3.681573489390963960e+00 3.717365919359774562e+00 5.472098021727259010e+00 5.484167195736386446e+00 3.680504864592738290e+00 5.481235825333804712e+00 1.833753064588152348e+00 3.658529017428518326e+00 3.677320556926048312e+00 2.602756736067615619e-03 7.328635211965737639e+00 7.288160344197107676e+00 7.951371493640401605e-03 1.885106585531586498e+00 3.640223150064214597e+00 5.502773524471274769e+00 6.632190353643362124e-02 3.639809833383271354e+00 3.651558244875433346e+00 1.860896621856220401e+00 3.668186179364582244e+00 1.828684305746288041e+00 9.445966020415369480e-02 5.454415179763965504e+00 1.819031469808745971e+00 8.658196270178780685e-02 3.646689183897221742e+00 7.311343945738139283e+00 1.849724908976201121e+00 1.822051890956478459e+00 3.652102333762692776e+00 5.718967608077809434e-02 1.829908804629098995e+00 5.470683372467345151e+00 1.891049268802679650e+00 7.275521789086614177e+00 1.826350100634265949e+00 3.704898470720020320e+00 7.289215251428865727e+00 3.653056804840748129e+00 1.905927905650139920e+00 5.447384453235801338e+00 3.656838211940607319e+00
5.529612616212578935e+00 5.479046604474216764e+00 3.614135823073373999e+00 5.472346276827066092e+00 2.115753414406648485e-03 1.842561934667172441e+00 3.638151266766306069e+00 1.835638158305319179e+00 1.845563306229341727e+00 3.703047054176490160e+00 7.256389914623766479e+00 1.379985874304023863e-02 5.520586800803187977e+00 3.658773902633102981e+00 5.490336931373934526e+00 5.566237097080248830e+00 7.273241880587361763e+00 5.493143814534414027e+00 1.054339766624292352e-01 5.421429863963732387e+00 5.488882872933923629e+00 1.861704336722617370e+00 5.440556117729874686e+00 2.601260771702623709e-02 5.533443423674019535e+00 1.844888868194318521e+00 7.284117056302117810e+00 3.664447776508681809e+00 1.828693386714397739e+00 5.446913234551070460e+00 5.503824258855077645e+00 3.654166637591736766e+00 1.838890487128000073e+00 1.833345369259023583e+00 1.055388496940742746e-04 5.487387091620022694e+00 3.655075377678888238e+00 3.666172286081044618e+00 3.657340581618947706e+00 1.438862320234264025e-01 7.288871874712365084e+00 3.629411855157965494e+00 1.799995604699577756e+00 1.832692612665549836e+00 6.351719713828042277e-03 5.100989239816297593e-02 1.851624548488139066e+00 1.852471940330979949e+00 5.521562114363576690e+00 5.452361560047538802e+00 1.832215437140320008e-02 5.503871793488698039e+00 1.813877641137444874e+00 3.681573456026805413e+00 3.717355877051629953e+00 5.472088064259344797e+00 5.484167225398961953e+00 3.680484822430316605e+00 5.481225910307174765e+00 1.833753127614886402e+00 3.658519144935842071e+00 3.677350599094925787e+00 2.602801204976214460e-03 7.328635202860016129e+00 7.288150340444737196e+00 7.961367735713495777e-03 1.885086519126740301e+00 3.640223242633128464e+00 5.502753591312279369e+00 6.635186064539891349e-02 3.639799706150221859e+00 3.651558141081374220e+00 1.860886773605968658e+00 3.668206213937915905e+00 1.828704346400926273e+00 9.447958411069579121e-02 5.454405098815372277e+00 1.819021399435188702e+00 8.659200500993233240e-02 3.646699141365135954e+00 7.311343916075563776e+00 1.849714994029657777e+00 1.822071933216158346e+00 3.652102374530018292e+00 5.718973674608789776e-02 1.829938812043039098e+00 5.470663383684781778e+00 1.891049250591237074e+00 7.275501781581871441e+00 1.826370093118412363e+00 3.704888428411875712e+00 7.289205293960951515e+00 3.653056834503323191e+00 1.905937838808125839e+00 5.447384418480863744e+00 3.656818178689135834e+00
5.529602649706446549e+00 5.479046643072326361e+00 3.614145856381188793e+00 5.472346191919331915e+00 2.095753596010725261e-03 1.842561927264005694e+00 3.638121333899765109e+00 1.835638277942824415e+00 1.845583406209130528e+00 3.703046960163034917e+00 7.256359911052999934e+00 1.380984758194671487e-02 5.520596876459478608e+00 3.658783856257843858e+00 5.490346901655015266e+00 5.566237063732103252e+00 7.273241884430534654e+00 5.493133814590756892e+00 1.054438916089725092e-01 5.421409821704052945e+00 5.488882832166598114e+00 1.861694352005042852e+00 5.440536148823245099e+00 2.604263350898749704e-02 5.533473389888706961e+00 1.844888744713640394e+00 7.284106956265985033e+00 3.664447752266257741e+00 1.828703394309941999e+00 5.446893238365341006e+00 5.503834352722810408e+00 3.654196598721219935e+00 1.838880464924934843e+00 1.833355259963142636e+00 9.550418555857119311e-05 5.487367054666967725e+00 3.655045463023789853e+00 3.666192413223291702e+00 3.657340689114590759e+00 1.438962743315709281e-01 7.288881832180279297e+00 3.629411825495389987e+00 1.799975689898756892e+00 1.832712697366513543e+00 6.351793845312007566e-03 5.103001036259778578e-02 1.851644459580794155e+00 1.852481880949485626e+00 5.521562096152133670e+00 5.452341552542796954e+00 1.834214685554939189e-02 5.503881835796842203e+00 1.813887598605359308e+00 3.681573426364229906e+00 3.717315835180652783e+00 5.472078234115281603e+00 5.484167355154013102e+00 3.680424814198930417e+00 5.481216161202506321e+00 1.833763324041911780e+00 3.658509348245178483e+00 3.677390637329827516e+00 2.612849319124521067e-03 7.328655226810994350e+00 7.288140247966625296e+00 7.981297193125645728e-03 1.885066419373748081e+00 3.640223339045215223e+00 5.502723658209627722e+00 6.639185095678737381e-02 3.639789532632715652e+00 3.651568003866812351e+00 1.860867086211186239e+00 3.668256286836953706e+00 1.828734431468129529e+00 9.451943192377998404e-02 5.454384936918186710e+00 1.819001258688074829e+00 8.660212312008969127e-02 3.646719094899074864e+00 7.311353890058227556e+00 1.849695155030850025e+00 1.822102013983146751e+00 3.652112452306742085e+00 5.720980622567396062e-02 1.829978738326782928e+00 5.470633331931828991e+00 1.891049180820205899e+00 7.275461770415560636e+00 1.826400078143048278e+00 3.704848353192752963e+00 7.289195467660062988e+00 3.653046964314718537e+00 1.905947696164099092e+00 5.447374387659900563e+00 3.656788141792424618e+00
5.529592649852169473e+00 5.479046685513609738e+00 3.614145889745347784e+00 5.472345988755717983e+00 2.055757802392009243e-03 1.842551912514016177e+00 3.638091467729515305e+00 1.835638389893983202e+00 1.845623506076232045e+00 3.703046781241845054e+00 7.256309907663836434e+00 1.381982901768658012e-02 5.520616985318192782e+00 3.658793763598128024e+00 5.490366838515594594e+00 5.566237030383957674e+00 7.273241888273707545e+00 5.493123814647101533e+00 1.054738305064950865e-01 5.421379686966259825e+00 5.488902720856684958e+00 1.861694282234011899e+00 5.440496137656933406e+00 2.607261853362347059e-02 5.533513322609524110e+00 1.844888582634851337e+00 7.284086822922037463e+00 3.664437652367543485e+00 1.828703448280745159e+00 5.446863271898530812e+00 5.503854455550541758e+00 3.654236521161790208e+00 1.838860413115637638e+00 1.833355084116692790e+00 8.551964905310449443e-05 5.487327051190758809e+00 3.654985557911580862e+00 3.666222671441761172e+00 3.657330900460636247e+00 1.439162406919801407e-01 7.288881751140884546e+00 3.629401758823416646e+00 1.799945817697525818e+00 1.832742824417958660e+00 6.351905042537954633e-03 5.106016152945575676e-02 1.851664324388992533e+00 1.852501788147489004e+00 5.521572111143114192e+00 5.452321498753597062e+00 1.837210591919330449e-02 5.503891911453132835e+00 1.813897552230100407e+00 3.681583396645311090e+00 3.717275717507662947e+00 5.472058407905194599e+00 5.484157481263824074e+00 3.680344730456976521e+00 5.481196500914380820e+00 1.833763583552014520e+00 3.658499636462249072e+00 3.677450675383126644e+00 2.622904836439442569e-03 7.328675199202385748e+00 7.288110151826944438e+00 8.011219191027572212e-03 1.885036253070187184e+00 3.640223485584932472e+00 5.502673758583822128e+00 6.646172257512832082e-02 3.639759235816135696e+00 3.651567759212951625e+00 1.860827517363728978e+00 3.668326440593781879e+00 1.828774590610472872e+00 9.456916133526176160e-02 5.454344736604496369e+00 1.818971077229978972e+00 8.663225004452330957e-02 3.646748967302817057e+00 7.311353801070501923e+00 1.849675391834054938e+00 1.822142090816159632e+00 3.652132533728705166e+00 5.722989391670273845e-02 1.830038672115268605e+00 5.470583287694728902e+00 1.891059092692009447e+00 7.275401709303223718e+00 1.826450022287671615e+00 3.704798278119353139e+00 7.289185683800456061e+00 3.653037127490272429e+00 1.905957486823780966e+00 5.447364364525285829e+00 3.656738105008400463e+00
5.529572650143614432e+00 5.479046770396177379e+00 3.614145956473664878e+00 5.472355742992514038e+00 2.005719658291536291e-03 1.842541860698284628e+00 3.638041668547002505e+00 1.835638579041363627e+00 1.845683672558963817e+00 3.703056550615344999e+00 7.256239858171819712e+00 1.383976962975755169e-02 5.520647094031183144e+00 3.658803628497128368e+00 5.490386742012014487e+00 5.566236997035812095e+00 7.273241892116880436e+00 5.493113814703444397e+00 1.055036844962834869e-01 5.421329552410072417e+00 5.488922602143605722e+00 1.861684236851127494e+00 5.440446161336360831e+00 2.612263310814761166e-02 5.533573297492765164e+00 1.844898335582692894e+00 7.284066626551356727e+00 3.664417570825993842e+00 1.828723552197574209e+00 5.446813346311732751e+00 5.503874567483995506e+00 3.654286447354732292e+00 1.838830365064267669e+00 1.833364874776374442e+00 7.549651443697011095e-05 5.487277014406735098e+00 3.654915686293239929e+00 3.666252968258341571e+00 3.657331145114496529e+00 1.439362495062563863e-01 7.288891670010688273e+00 3.629391695853026345e+00 1.799895997347328525e+00 1.832793040013540375e+00 6.342090427591464720e-03 5.110035500445829493e-02 1.851694146665104901e+00 1.852521665682916874e+00 5.521582074574506116e+00 5.452281441302829101e+00 1.841205752332699883e-02 5.503921986817977619e+00 1.813907420972273643e+00 3.681593300198074736e+00 3.717205591166119483e+00 5.472028705266588133e+00 5.484157703708184783e+00 3.680234680500335642e+00 5.481176964106933447e+00 1.833773943098249815e+00 3.658480094640510938e+00 3.677550755514500391e+00 2.633008524246273178e-03 7.328715204650476878e+00 7.288079966961523048e+00 8.051074404268557944e-03 1.884986053709925669e+00 3.640223720850389810e+00 5.502613925742676493e+00 6.656155130243453233e-02 3.639718811766505802e+00 3.651567410765031774e+00 1.860768142865609320e+00 3.668426671274425566e+00 1.828834827473196478e+00 9.464881450756308656e-02 5.454294412900928535e+00 1.818930792034167299e+00 8.666252857298252510e-02 3.646798831838609534e+00 7.311373719373254865e+00 1.849635747184584789e+00 1.822202248506963329e+00 3.652162689225809000e+00 5.726004212731877069e-02 1.830128570876410565e+00 5.470513221310907781e+00 1.891058910696080231e+00 7.275311687061403632e+00 1.826509988635360182e+00 3.704738127389662683e+00 7.289165946316110478e+00 3.653017320384744693e+00 1.905987134693713170e+00 5.447344268128423650e+00 3.656657997963506546e+00
5.529552683783204969e+00 5.479046851435572130e+00 3.614156023145638663e+00 5.472365454775443006e+00 1.945681604993114086e-03 1.842531805180969595e+00 3.637981911964079274e+00 1.835648810539225462e+00 1.845743876107437620e+00 3.703056268574978382e+00 7.256149847459520075e+00 1.386973614647698388e-02 5.520677236092319973e+00 3.658813489552955378e+00 5.490416645452090627e+00 5.566226963833388552e+00 7.273241938401338480e+00 5.493103848123946698e+00 1.055435383403493521e-01 5.421279375412601631e+00 5.488942450066367051e+00 1.861674182362522023e+00 5.440386181263418663e+00 2.618264392474484517e-02 5.533653196282547704e+00 1.844898007581942112e+00 7.284036359807117833e+00 3.664407413336709052e+00 1.828733617607094741e+00 5.446753383715535968e+00 5.503904764179459619e+00 3.654356330924785734e+00 1.838800291051905678e+00 1.833364589779765907e+00 5.551975507978979907e-05 5.487217007341628872e+00 3.654825866525932554e+00 3.666303353619059013e+00 3.657321463956185070e+00 1.439662248266643796e-01 7.288901550282381514e+00 3.629371599574820362e+00 1.799846210345276365e+00 1.832843251765949200e+00 6.342275756301377944e-03 5.115058168188399423e-02 1.851723922656760779e+00 1.852551509797842888e+00 5.521592104702189197e+00 5.452241376165715359e+00 1.847200901477350291e-02 5.503952062182822402e+00 1.813917289714447101e+00 3.681603203750838382e+00 3.717125431622152920e+00 5.471999048912437047e+00 5.484147959573048681e+00 3.680094555178849980e+00 5.481147558557312394e+00 1.833774399091721241e+00 3.658450628766507950e+00 3.677660874153183546e+00 2.653149221451485667e-03 7.328755200992847385e+00 7.288039778343731179e+00 8.100925859582627439e-03 1.884925830252961898e+00 3.640234006152675672e+00 5.502534130079960839e+00 6.668137973829567355e-02 3.639678302834308710e+00 3.651566995588794384e+00 1.860698962571105008e+00 3.668556936437600502e+00 1.828915108692141356e+00 9.474835823826077696e-02 5.454234012091942141e+00 1.818870436521142331e+00 8.670281606144059072e-02 3.646858657685489113e+00 7.311383608069776052e+00 1.849576187734293997e+00 1.822282490898730067e+00 3.652192918854396453e+00 5.730025085752205039e-02 1.830248434610209252e+00 5.470423132780365627e+00 1.891068710342985515e+00 7.275201614873556544e+00 1.826589914103036394e+00 3.704647901295126999e+00 7.289136340089588550e+00 3.652987609726454199e+00 1.906006749361222274e+00 5.447324218016017738e+00 3.656567924339115372e+00
5.529522684220372852e+00 5.479046978759424036e+00 3.614156123238114748e+00 5.472375005848626017e+00 1.855647667273925550e-03 1.842511738615248307e+00 3.637912213117448612e+00 1.835649073039653967e+00 1.845834109149456115e+00 3.703065901481155109e+00 7.256039794487539218e+00 1.389966189587112794e-02 5.520707420607323890e+00 3.658833350517981309e+00 5.490446552593749807e+00 5.566226897137096508e+00 7.273241946087684262e+00 5.493083848236634203e+00 1.055933738272499534e-01 5.421209148469104733e+00 5.488982257109115359e+00 1.861664076314327954e+00 5.440306197528906651e+00 2.625264728183186735e-02 5.533753061432739706e+00 1.844897598541796802e+00 7.283996026390905598e+00 3.664387274204589318e+00 1.828763732962641164e+00 5.446673461999352206e+00 5.503954936341055593e+00 3.654436137207816238e+00 1.838750154125496916e+00 1.833384237795421035e+00 3.546579950127583199e-05 5.487136933660894833e+00 3.654716089503937226e+00 3.666363823771541242e+00 3.657311853227774190e+00 1.440062424552168985e-01 7.288921388021988079e+00 3.629351473634039760e+00 1.799776517648125074e+00 1.832923551971692433e+00 6.332538974422162285e-03 5.122092632374451032e-02 1.851773609741071525e+00 1.852591294531274135e+00 5.521602083270284567e+00 5.452181307367031771e+00 1.854195304670979219e-02 5.503992179855812239e+00 1.813937115924534771e+00 3.681613077641026965e+00 3.717015187607620064e+00 5.471949520063740913e+00 5.484138308127220363e+00 3.679904421480256094e+00 5.481108361461739520e+00 1.833785018148059054e+00 3.658421366056118895e+00 3.677810988585484608e+00 2.683304668646329348e-03 7.328815230391917623e+00 7.287999501000197000e+00 8.160710530235757917e-03 1.884845464589139485e+00 3.640234387957850259e+00 5.502424397613009610e+00 6.683112282925499081e-02 3.639617666759864090e+00 3.651566472916914385e+00 1.860619943132070464e+00 3.668717239926480023e+00 1.829005434323651258e+00 9.486782587550057766e-02 5.454163530334362520e+00 1.818800010634560316e+00 8.675322166005597357e-02 3.646938437066307159e+00 7.311403470748961908e+00 1.849516746539882961e+00 1.822382729265719981e+00 3.652233155829807565e+00 5.735047765344549603e-02 1.830388263407465965e+00 5.470313018401517624e+00 1.891078482672726713e+00 7.275061531428597128e+00 1.826699828296932004e+00 3.704537633038169187e+00 7.289096818836438452e+00 3.652957962094896871e+00 1.906046297040995041e+00 5.447304090707390856e+00 3.656457784099093278e+00
5.529482675697541261e+00 5.479037144772188839e+00 3.614166252936822588e+00 5.472384514467941052e+00 1.755613820356780172e-03 1.842491668347943756e+00 3.637822623712421599e+00 1.835659412645501254e+00 1.845944412508687682e+00 3.703075449479597658e+00 7.255909741697162296e+00 1.392958024209865406e-02 5.520757671527174004e+00 3.658853118914092040e+00 5.490496392894405275e+00 5.566216830586528275e+00 7.273241996215314309e+00 5.493063881713479368e+00 1.056531333664152000e-01 5.421128883018298872e+00 5.489012027142466721e+00 1.861643952200413787e+00 5.440206248730937055e+00 2.634267648722374636e-02 5.533872892943340283e+00 1.844897108462256963e+00 7.283945626302720022e+00 3.664357059416179840e+00 1.828783894693446710e+00 5.446583570002086816e+00 5.504005235864252832e+00 3.654545943218440396e+00 1.838700028303837719e+00 1.833393776806639730e+00 5.462062354840759184e-06 5.487036889755422031e+00 3.654576355372976870e+00 3.666434421157073409e+00 3.657302346293422435e+00 1.440562174841798493e-01 7.288931183411113679e+00 3.629331310627517126e+00 1.799686858590564764e+00 1.833003933216830195e+00 6.332868864516697123e-03 5.130134662189528294e-02 1.851833250450123369e+00 1.852641049545786567e+00 5.521622052586935503e+00 5.452111192374693438e+00 1.862185995656049503e-02 5.504032330876948542e+00 1.813956938291449106e+00 3.681632951474871351e+00 3.716884943884531722e+00 5.471900076097613308e+00 5.484128723409710915e+00 3.679684288218829646e+00 5.481069291690018552e+00 1.833795737296873174e+00 3.658382230853054029e+00 3.677991145186664035e+00 2.713504584749773605e-03 7.328885198979956606e+00 7.287929173801440008e+00 8.240450619293092360e-03 1.884755065722893530e+00 3.640234816047482003e+00 5.502304698566561569e+00 6.701085637732534517e-02 3.639546899609196640e+00 3.651575846394631952e+00 1.860511193990108669e+00 3.668917658846483576e+00 1.829125874684939479e+00 9.501713236582577660e-02 5.454062925368511117e+00 1.818719473607095960e+00 8.682370276923909169e-02 3.647028127630583150e+00 7.311433270345069957e+00 1.849437390544651061e+00 1.822503052333673601e+00 3.652273466936701851e+00 5.740080756854583355e-02 1.830568099527860815e+00 5.470182918941691064e+00 1.891088151883291157e+00 7.274881440660499798e+00 1.826829727571806838e+00 3.704407331724511199e+00 7.289057386309027997e+00 3.652918381248000834e+00 1.906085626420450652e+00 5.447263978953061248e+00 3.656307636681279671e+00
5.529442709628576758e+00 5.479037310694150342e+00 3.614176386337113911e+00 5.472393938179521911e+00 1.635580155043715256e-03 1.842471590677472681e+00 3.637703058986986537e+00 1.835659871979656410e+00 1.846074812146125232e+00 3.703094936667007619e+00 7.255749639051562561e+00 1.397945400673038067e-02 5.520817964755168283e+00 3.658882844778117871e+00 5.490546203532486125e+00 5.566216763890237118e+00 7.273242003901660091e+00 5.493043881826166874e+00 1.057228745484151966e-01 5.421028567621467786e+00 5.489061756295805061e+00 1.861623809875056823e+00 5.440086292428223835e+00 2.645269817676181370e-02 5.534022733122494486e+00 1.844906494811236808e+00 7.283885129879984710e+00 3.664326787037199828e+00 1.828814067862969406e+00 5.446463681875436613e+00 5.504065553453168391e+00 3.654675714292523026e+00 1.838629876633874005e+00 1.833403249121567269e+00 -2.453398844535173591e-05 5.486916845962636735e+00 3.654406706586918574e+00 3.666525145684852216e+00 3.657292946854712845e+00 1.441162348212872701e-01 7.288950936268153491e+00 3.629311117958418542e+00 1.799587293692182399e+00 1.833114360474018989e+00 6.323243279863428531e-03 5.140184243061378389e-02 1.851902802342632270e+00 1.852700741477221413e+00 5.521642003692144307e+00 5.452021069877612369e+00 1.872175935055738621e-02 5.504092524060505198e+00 1.813986675684994054e+00 3.681652762281982127e+00 3.716724615690877087e+00 5.471830759636942432e+00 5.484119231381509252e+00 3.679414104126426999e+00 5.481010430463146399e+00 1.833816615806970418e+00 3.658343256359735562e+00 3.678201297672263781e+00 2.753715549259540523e-03 7.328975233972840897e+00 7.287858754033768705e+00 8.340123867345873576e-03 1.884634576355099567e+00 3.640245386742855693e+00 5.502145103539546334e+00 6.724047094090307430e-02 3.639455924276887799e+00 3.651575045704732236e+00 1.860382714999497811e+00 3.669158150756327341e+00 1.829276396411847916e+00 9.519632926882479196e-02 5.453952200855956001e+00 1.818618832898259319e+00 8.690426864043383770e-02 3.647137775571971385e+00 7.311463043980187315e+00 1.849348228753034507e+00 1.822653409884158249e+00 3.652333822399818075e+00 5.748116436364260340e-02 1.830777819581517862e+00 5.470022730663168353e+00 1.891107760282823014e+00 7.274671300037178767e+00 1.826979582265086277e+00 3.704236988539876041e+00 7.289008123637555236e+00 3.652878930156155945e+00 1.906134931411759270e+00 5.447233832352990746e+00 3.656137459713577620e+00
5.529392743705335178e+00 5.479037519057396111e+00 3.614186553101563781e+00 5.472413201035633001e+00 1.485508164026104081e-03 1.842441468594436360e+00 3.637573603557432644e+00 1.835670365977946750e+00 1.846225248736617086e+00 3.703104254184672151e+00 7.255549579210453182e+00 1.402934632918755725e-02 5.520888291185586105e+00 3.658912524357686102e+00 5.490605980750062898e+00 5.566206663991522419e+00 7.273242057872463917e+00 5.493013915359356680e+00 1.058125638793816492e-01 5.420908163680498326e+00 5.489121411261315586e+00 1.861593682832125340e+00 5.439946367218880141e+00 2.659274565826114448e-02 5.534202497062469028e+00 1.844905757770340493e+00 7.283814529719533581e+00 3.664296490415796193e+00 1.828854248628036361e+00 5.446323797563056068e+00 5.504135922455951402e+00 3.654825446586890791e+00 1.838549699059261799e+00 1.833422612140613861e+00 -6.456470338104600810e-05 5.486776765216796470e+00 3.654207109797614983e+00 3.666636001198051886e+00 3.657273654967990062e+00 1.441862277702478101e-01 7.288980654279453297e+00 3.629270895739432401e+00 1.799467813992979170e+00 1.833244872432171046e+00 6.313691826694125230e-03 5.152245620376708080e-02 1.851992265327796705e+00 1.852770374027161937e+00 5.521672012242199834e+00 5.451920893500531662e+00 1.885162150978149723e-02 5.504162717098339819e+00 1.814016370637255182e+00 3.681672539724934357e+00 3.716534245480523246e+00 5.471751570590924096e+00 5.484109835744201966e+00 3.679093878308770105e+00 5.480941781533495316e+00 1.833837657436277579e+00 3.658284494427197941e+00 3.678461534586420889e+00 2.794011750003199193e-03 7.329075217260414554e+00 7.287768288163244179e+00 8.449756291729768054e-03 1.884493944780446295e+00 3.640246053941118110e+00 5.501955571708295523e+00 6.751004246772353279e-02 3.639354779270246087e+00 3.651574107856615292e+00 1.860224515411681212e+00 3.669448761849665175e+00 1.829447036626461465e+00 9.541533153104092557e-02 5.453811314537018617e+00 1.818498047740725543e+00 8.699491927364019772e-02 3.647267380890471422e+00 7.311492791654311318e+00 1.849229228108332679e+00 1.822833890642915122e+00 3.652404289003816196e+00 5.756160003549187776e-02 1.831037554553857083e+00 5.469822561117937632e+00 1.891127332259469940e+00 7.274421144404372264e+00 1.827169421926657655e+00 3.704046536496527597e+00 7.288948953625798310e+00 3.652819542203732617e+00 1.906204017811305773e+00 5.447183616424650765e+00 3.655927208839765630e+00
5.341560000000000308e+00 5.478710000000000413e+00 3.504729999999999901e+00 5.434739999999999682e+00 2.934000000000000150e-02 1.790210000000000079e+00 3.568799999999999972e+00 1.843450000000000033e+00 1.783970000000000056e+00 3.579029999999999934e+00 7.190229999999999677e+00 1.478999999999999933e-02 5.312490000000000379e+00 3.703660000000000174e+00 5.322040000000000326e+00 5.291249999999999787e+00 7.285730000000000040e+00 5.322560000000000180e+00 -1.512400000000000133e-01 5.447470000000000034e+00 5.326360000000000205e+00 1.765589999999999993e+00 5.391759999999999664e+00 2.444999999999999951e-02 5.310240000000000293e+00 1.927990000000000093e+00 7.064009999999999678e+00 3.492119999999999891e+00 1.893629999999999924e+00 5.287410000000000387e+00 5.399670000000000414e+00 3.647429999999999950e+00 1.782589999999999897e+00 1.689489999999999936e+00 7.893000000000000016e-02 5.319060000000000343e+00 3.494069999999999787e+00 3.682970000000000077e+00 3.546640000000000015e+00 -8.916000000000000314e-02 7.275299999999999656e+00 3.520030000000000214e+00 1.763710000000000111e+00 1.818289999999999962e+00 2.830000000000000050e-03 -3.769000000000000128e-02 1.859879999999999978e+00 1.797180000000000000e+00 5.436829999999999607e+00 5.401819999999999844e+00 1.797999999999999945e-02 5.374050000000000438e+00 1.849490000000000078e+00 3.572140000000000093e+00 3.478540000000000187e+00 5.501030000000000086e+00 5.322330000000000005e+00 3.537220000000000031e+00 5.456599999999999895e+00 1.778370000000000006e+00 3.447000000000000064e+00 3.740029999999999966e+00 7.094350000000000378e+00 7.205669999999999575e+00 7.225159999999999805e+00 1.290999999999999960e-02 1.673030000000000017e+00 3.685779999999999834e+00 5.330440000000000289e+00 -1.010699999999999932e-01 3.661109999999999864e+00 3.534839999999999982e+00 1.744350000000000067e+00 3.660730000000000040e+00 1.773009999999999975e+00 -5.942999999999999672e-02 5.433760000000000367e+00 1.759949999999999903e+00 -1.812100000000000100e-01 3.718649999999999789e+00 7.090709999999999624e+00 1.719209999999999905e+00 1.856780000000000097e+00 3.546720000000000095e+00 -1.315600000000000103e-01 1.889240000000000030e+00 5.307339999999999947e+00 1.709249999999999936e+00 7.237610000000000099e+00 1.768760000000000110e+00 3.556509999999999838e+00 4.785999999999999976e-02 3.537459999999999827e+00 1.704870000000000108e+00 5.452960000000000029e+00 3.550539999999999807e+00
5.339279999999999582e+00 5.481379999999999697e+00 3.505889999999999951e+00 5.435629999999999740e+00 2.881999999999999840e-02 1.788980000000000015e+00 3.568919999999999870e+00 1.840819999999999901e+00 1.784359999999999946e+00 3.579460000000000086e+00 7.192210000000000214e+00 1.450000000000000074e-02 5.312330000000000219e+00 3.704540000000000166e+00 5.322029999999999816e+00 5.291890000000000427e+00 7.287630000000000052e+00 5.323159999999999670e+00 -1.533100000000000018e-01 5.446839999999999904e+00 5.326399999999999579e+00 1.766469999999999985e+00 5.391379999999999839e+00 2.418999999999999970e-02 5.308670000000000222e+00 1.928209999999999980e+00 7.064729999999999954e+00 3.493450000000000166e+00 1.892360000000000042e+00 5.286190000000000389e+00 5.400330000000000297e+00 3.646929999999999783e+00 1.782969999999999944e+00 1.689109999999999889e+00 7.632999999999999508e-02 5.318970000000000198e+00 3.494260000000000144e+00 3.683489999999999931e+00 3.548480000000000079e+00 -8.852000000000000146e-02 7.275669999999999860e+00 3.518299999999999983e+00 1.765640000000000098e+00 1.818380000000000107e+00 3.299999999999999982e-03 -3.611999999999999933e-02 1.860219999999999985e+00 1.797919999999999963e+00 5.438780000000000392e+00 5.399409999999999599e+00 1.753000000000000044e-02 5.371450000000000280e+00 1.846279999999999921e+00 3.571810000000000151e+00 3.476710000000000189e+00 5.500499999999999723e+00 5.324130000000000251e+00 3.536319999999999908e+00 5.461549999999999905e+00 1.776140000000000052e+00 3.445460000000000189e+00 3.739269999999999872e+00 7.093820000000000014e+00 7.205560000000000187e+00 7.224870000000000125e+00 1.123999999999999999e-02 1.670889999999999986e+00 3.688369999999999926e+00 5.332279999999999909e+00 -9.868999999999999995e-02 3.659740000000000215e+00 3.535439999999999916e+00 1.741130000000000067e+00 3.661259999999999959e+00 1.774000000000000021e+00 -6.246000000000000163e-02 5.435880000000000045e+00 1.757160000000000055e+00 -1.834199999999999997e-01 3.719559999999999977e+00 7.091929999999999623e+00 1.720669999999999922e+00 1.856770000000000032e+00 3.548439999999999817e+00 -1.307699999999999974e-01 1.887909999999999977e+00 5.304850000000000065e+00 1.711920000000000108e+00 7.236539999999999750e+00 1.765800000000000036e+00 3.483680000000000110e+00 7.275999999999999801e+00 3.537230000000000096e+00 1.702890000000000015e+00 5.452099999999999724e+00 3.551019999999999843e+00