-2.260783138200000053e+02
-2.260784435500000029e+02
-2.260786194000000080e+02
-2.260789053299999978e+02
-2.260792812500000082e+02
-2.260798422999999957e+02
-2.260804780699999981e+02
-2.260812529199999972e+02
-2.260821409200000005e+02
-2.260832693300000074e+02
-2.230946630999999911e+02
-2.230905588599999874e+02
-2.230834506200000078e+02
-2.230735185199999933e+02
-2.230608486499999970e+02
-2.230455392599999982e+02
-2.230277257600000098e+02
-2.230075626199999874e+02
-2.229851802199999895e+02
-2.229607515700000135e+02
-2.271202731799999981e+02
-2.271171329500000127e+02
-2.271111460500000021e+02
-2.271025750400000049e+02
-2.270913884500000108e+02
-2.270776458699999978e+02
-2.270614068900000007e+02
-2.270427570600000138e+02
-2.270217697399999963e+02
-2.269985177199999953e+02
-2.252675618400000133e+02
-2.252660174499999926e+02
-2.252610563700000057e+02
-2.252528446599999938e+02
-2.252414281700000060e+02
-2.252268786200000079e+02
-2.252092578300000127e+02
-2.251886498199999949e+02
-2.251651837999999941e+02
-2.251389631399999871e+02
-2.266184006899999872e+02
-2.266184944000000030e+02
-2.266161579200000062e+02
-2.266114087599999891e+02
-2.266042510400000083e+02
-2.265947234200000082e+02
-2.265828634899999940e+02
-2.265687301000000105e+02
-2.265523684599999967e+02
-2.265338611500000070e+02
-2.262188565900000015e+02
-2.262172117300000025e+02
-2.262120946500000116e+02
-2.262035620800000117e+02
-2.261916847800000028e+02
-2.261765166600000043e+02
-2.261581527200000039e+02
-2.261366962500000000e+02
-2.261122790500000121e+02
-2.260850626399999896e+02
-2.259485215699999969e+02
-2.259497375800000043e+02
-2.259483756699999901e+02
-2.259444690999999921e+02
-2.259380563999999936e+02
-2.259291863999999919e+02
-2.259179142600000034e+02
-2.259043127799999979e+02
-2.258884516500000075e+02
-2.258704372999999919e+02
-2.252188551300000086e+02
-2.252206529499999874e+02
-2.252196139399999879e+02
-2.252157762900000080e+02
-2.252091618000000040e+02
-2.251998207000000036e+02
-2.251878172700000107e+02
-2.251732391399999926e+02
-2.251561619199999882e+02
-2.251366941899999858e+02
-2.270230804999999918e+02
-2.270217320399999892e+02
-2.270177602200000138e+02
-2.270111809999999934e+02
-2.270020328100000029e+02
-2.269903760800000043e+02
-2.269762695999999949e+02
-2.269597731499999895e+02
-2.269409678400000132e+02
-2.269199363200000050e+02
-2.255333352199999979e+02
-2.255322256000000039e+02
-2.255279570399999898e+02
-2.255205953399999999e+02
-2.255101921099999913e+02
-2.254968274400000041e+02
-2.254805840100000012e+02
-2.254615767699999935e+02
-2.254399167800000043e+02
-2.254157155100000125e+02
-2.274546548099999939e+02
-2.274546520000000100e+02
-2.274546526199999903e+02
-2.274546530599999983e+02
-2.274546536000000003e+02
-2.274546543300000110e+02
-2.274546552099999985e+02
-2.274546562799999947e+02
-2.274546575900000107e+02
-2.274546591399999897e+02
-2.269128319399999896e+02
-2.269102621799999895e+02
-2.269048176899999874e+02
-2.268967895099999907e+02
-2.268861488000000008e+02
-2.268729450200000031e+02
-2.268572408999999936e+02
-2.268391211199999873e+02
-2.268186828400000081e+02
-2.267960033100000032e+02
-2.261718402399999945e+02
-2.261693207799999925e+02
-2.261650654999999972e+02
-2.261590930399999877e+02
-2.261514077100000009e+02
-2.261420295599999974e+02
-2.261309861299999966e+02
-2.261183193999999901e+02
-2.261040549100000021e+02
-2.260882339999999999e+02
-2.267472098700000060e+02
-2.267453818200000057e+02
-2.267417473099999938e+02
-2.267363464999999962e+02
-2.267291650200000106e+02
-2.267202425600000026e+02
-2.267096189499999923e+02
-2.266973269099999868e+02
-2.266833817099999919e+02
-2.266678199499999948e+02
-2.271510311799999897e+02
-2.271500149000000022e+02
-2.271468938499999979e+02
-2.271416840299999933e+02
-2.271344096999999920e+02
-2.271250854500000003e+02
-2.271137373400000001e+02
-2.271003997599999877e+02
-2.270851131199999884e+02
-2.270679539600000112e+02
-2.262399492399999872e+02
-2.262391207400000042e+02
-2.262354216299999905e+02
-2.262289311499999940e+02
-2.262196713300000113e+02
-2.262076721699999950e+02
-2.261929916999999932e+02
-2.261757322500000100e+02
-2.261559496099999933e+02
-2.261337423100000024e+02
-2.257846106499999905e+02
-2.257843335700000011e+02
-2.257808234400000060e+02
-2.257741284200000109e+02
-2.257643038699999920e+02
-2.257514231000000109e+02
-2.257355790000000013e+02
-2.257168661499999871e+02
-2.256954203500000062e+02
-2.256713675599999931e+02
-2.268879702499999951e+02
-2.268869650100000115e+02
-2.268833404799999869e+02
-2.268771442199999910e+02
-2.268684041399999956e+02
-2.268571603499999867e+02
-2.268434893399999908e+02
-2.268274441099999876e+02
-2.268091104400000120e+02
-2.267885490699999878e+02
-2.269723571199999981e+02
-2.269716022000000066e+02
-2.269686211300000025e+02
-2.269636335099999940e+02
-2.269565909099999885e+02
-2.269475228999999956e+02
-2.269364598699999931e+02
-2.269234499799999867e+02
-2.269085387599999990e+02
-2.268917885799999965e+02
-2.269272412699999961e+02
-2.269260367500000086e+02
-2.269226551900000004e+02
-2.269171625399999925e+02
-2.269095736699999861e+02
-2.268999190799999894e+02
-2.268882576899999890e+02
-2.268746361000000036e+02
-2.268591171799999984e+02
-2.268417519399999946e+02
-2.263323107100000016e+02
-2.263323571100000038e+02
-2.263324619599999892e+02
-2.263326211899999976e+02
-2.263328610000000083e+02
-2.263331608000000017e+02
-2.263335156199999858e+02
-2.263339457900000014e+02
-2.263344747399999903e+02
-2.263351497399999914e+02
-2.254844211200000075e+02
-2.254823845900000094e+02
-2.254787378700000033e+02
-2.254736803499999951e+02
-2.254671709899999996e+02
-2.254592200600000069e+02
-2.254498547599999938e+02
-2.254390889999999956e+02
-2.254269560099999978e+02
-2.254134683999999993e+02
-2.259756075200000112e+02
-2.259759054699999865e+02
-2.259745919599999979e+02
-2.259718422100000055e+02
-2.259675965899999994e+02
-2.259618836699999918e+02
-2.259547181000000080e+02
-2.259461088200000063e+02
-2.259360803399999895e+02
-2.259246584500000097e+02
-2.265482055500000058e+02
-2.265480522699999995e+02
-2.265460167699999943e+02
-2.265421043499999882e+02
-2.265363333699999941e+02
-2.265287568800000031e+02
-2.265193784699999924e+02
-2.265082513600000027e+02
-2.264954063399999882e+02
-2.264808726999999919e+02
-2.243273737400000130e+02
-2.243263706799999966e+02
-2.243241466300000013e+02
-2.243207313800000122e+02
-2.243161168599999939e+02
-2.243103058400000123e+02
-2.243033249000000069e+02
-2.242951882799999908e+02
-2.242859254699999951e+02
-2.242755438799999865e+02
-2.270883247300000107e+02
-2.270872581600000046e+02
-2.270839856800000121e+02
-2.270785282100000018e+02
-2.270709375799999918e+02
-2.270612448299999926e+02
-2.270494969899999944e+02
-2.270357376599999952e+02
-2.270200301700000125e+02
-2.270024371799999869e+02
-2.257366510999999889e+02
-2.257359388700000125e+02
-2.257335099999999954e+02
-2.257293720799999903e+02
-2.257235577099999944e+02
-2.257160858800000085e+02
-2.257069696099999874e+02
-2.256962530000000129e+02
-2.256839692499999899e+02
-2.256701568599999916e+02
-2.248861240999999893e+02
-2.248861631299999999e+02
-2.248847751499999958e+02
-2.248820859600000119e+02
-2.248780504199999939e+02
-2.248726723400000083e+02
-2.248659581800000069e+02
-2.248579179799999963e+02
-2.248485693099999878e+02
-2.248379207000000122e+02
-2.248308405299999890e+02
-2.248313261899999986e+02
-2.248305390300000113e+02
-2.248286112499999945e+02
-2.248255000000000052e+02
-2.248212193699999943e+02
-2.248157777300000078e+02
-2.248091884700000094e+02
-2.248014726099999905e+02
-2.247926494799999944e+02
-2.254561840099999870e+02
-2.254548072700000034e+02
-2.254520124800000076e+02
-2.254477784199999917e+02
-2.254421260700000005e+02
-2.254350528399999973e+02
-2.254265763100000015e+02
-2.254167045000000087e+02
-2.254054528199999936e+02
-2.253928541900000084e+02
