-8.123907461058239854e-02 -5.542887566770116764e-03 1.547587421887274342e-02 2.787729499976843509e-02 -2.348409053259712942e-01 -4.478347136136404810e-02 -2.152243318367547120e-01 1.154675344447641042e-02 2.487095721746852006e-01 2.279514943856770018e-02 -3.129027706366723227e-01 8.416720267994813598e-02 1.104706979225131280e-01 5.084026926374880101e-02 1.005017057651380052e-01 -1.003359963953965629e-02 2.126109866888671249e-04 -4.866173227333537438e-02 1.412353133317389153e-01 -1.952197425918571483e-01 9.015448805497475182e-02 -3.718357101329621689e-02 -2.300684891973738821e-01 2.168228026687623045e-01 2.816026830435206518e-01 8.654299771543600556e-03 -1.100433867579269642e-01 -5.849849792094313772e-02 6.244809230624572688e-02 -2.193021541009208264e-01 1.196447375323242135e-01 2.474091287706976228e-01 -1.318906525222529047e-01 3.021520030445697461e-02 -6.116021790626699484e-02 -2.312865701726312673e-01 -3.278255735247606606e-01 1.719828189465799906e-01 -2.299279607506716366e-02 1.156070796375335274e-01 4.080363046123834658e-02 -5.418415192529711655e-02 -1.977840875782997387e-01 2.091306482467664429e-01 -1.372213152927479439e-02 1.926664179773649455e-01 1.372491318154911988e-01 1.139268823441827033e-01 1.261352097109258094e-02 -5.132266548892180924e-02 6.119055682721022404e-02 3.506596950496775750e-02 1.613962271501128906e-02 1.257633508991242398e-02 -9.349456503292913334e-02 -4.015613918449279646e-02 -6.226680744909440617e-03 -1.594470817090769821e-01 -3.202172079719947662e-02 9.035470859071829605e-03 -2.722315114010187900e-02 1.302088089574276186e-01 2.146694661313750668e-02 4.871583143241700609e-02 -4.466626836146433965e-02 5.685469605503121887e-02 -6.829423596057353218e-02 2.726666712969743125e-03 -9.105971654468229814e-02 1.365445679203229068e-01 -5.249297826064017874e-02 2.207487662542163658e-03 -7.605899269725592549e-02 1.419627240667213630e-01 8.500368031111778244e-02 1.073788079614882846e-01 -6.848550874081998918e-02 -5.937374311327262705e-02 4.673403906202669433e-02 6.579974801134019780e-02 1.741253673630285825e-02 -5.636927072734249089e-02 8.699541484824296900e-02 3.426760798552588166e-02 4.325188920204359189e-02 1.273290532925712149e-01 -9.595384290934737270e-02 1.005131281004266117e-02 -1.251804729241405567e-01 9.364789935862523340e-02 -9.863615616658190366e-02 -3.250503302293063917e-02 -2.840271898709438234e-02 3.139220285089400209e-02 -2.353194545296419596e-02 -1.041183175496369628e-01
-8.036981532543088780e-02 -5.545828570927194452e-03 1.615297808510925831e-02 2.785163023487080558e-02 -2.355269409725450624e-01 -4.440964732324874376e-02 -2.149298872845671060e-01 1.196043122133878985e-02 2.489147503962810259e-01 2.322334584315028858e-02 -3.126495990303653771e-01 8.420187221791013144e-02 1.103577560444361644e-01 5.119469032744632109e-02 1.006682195537081242e-01 -1.124804247718767108e-02 1.171941524153865188e-03 -4.911031617181206566e-02 1.424716030188019344e-01 -1.946829855363818862e-01 9.015257153234088050e-02 -3.789421727522344907e-02 -2.290482448525583137e-01 2.162335613198392570e-01 2.829325924110955848e-01 7.137158247306606834e-03 -1.114434127110693479e-01 -5.737078494334988538e-02 6.202758035258722907e-02 -2.200570806781441402e-01 1.196347413013747335e-01 2.472427580908290734e-01 -1.307786768605377348e-01 2.930122628793885298e-02 -6.150150589282768476e-02 -2.308406508891739650e-01 -3.267363417064750863e-01 1.722613044358289325e-01 -2.328232306571229385e-02 1.141512372984553741e-01 3.984644277742503682e-02 -5.321265935110851275e-02 -1.978421381912159049e-01 2.071134868142120444e-01 -1.266970724156797797e-02 1.925378361755623047e-01 1.369150254620905560e-01 1.129791773980826225e-01 1.270633821974821373e-02 -5.086404088404273410e-02 6.115142333578014316e-02 3.433800326231546685e-02 1.583289391297075174e-02 1.208064204824501643e-02 -9.358258610208886052e-02 -3.966063643683378354e-02 -6.563198676744214609e-03 -1.596028771281571002e-01 -3.275999288458731479e-02 8.837705562880491736e-03 -2.735195492387674024e-02 1.291062484134868071e-01 2.172995389864543214e-02 4.952533884732709946e-02 -4.393440876776916887e-02 5.607227335576827482e-02 -6.828833001406349468e-02 2.740658799672980594e-03 -9.110573112178031729e-02 1.345707160913575395e-01 -5.237845221524263517e-02 1.815111895941326665e-03 -7.633038307464548589e-02 1.419037798605860823e-01 8.526256415306902869e-02 1.072009994064820199e-01 -6.876946790712031021e-02 -6.015326367723525247e-02 4.701715864162798325e-02 6.608344752046402260e-02 1.768570315475376589e-02 -5.607900175455371450e-02 8.758499235726785459e-02 3.479586955358490025e-02 4.255770947433998308e-02 1.264480401136208743e-01 -9.608286726426210067e-02 8.859288688091427472e-03 -1.244289399326252987e-01 9.239015627860031055e-02 -9.668589878635784618e-02 -2.998079069872789520e-02 -2.704924499784112923e-02 3.109782278034285349e-02 -2.363725927407470465e-02 -1.025983677566683350e-01
-7.974943394127552432e-02 -5.746710996795282959e-03 1.681983578295103907e-02 2.704017765911430685e-02 -2.367194647643394989e-01 -4.452340022783744106e-02 -2.142986640235814144e-01 1.299355785948889432e-02 2.494630455214966180e-01 2.434940235299794253e-02 -3.129254054515729910e-01 8.426501138681774528e-02 1.107318527794270563e-01 5.203082764488265594e-02 1.014302976463335032e-01 -1.226874702811400070e-02 1.864350809229099824e-03 -4.929864726765097876e-02 1.427191169656997771e-01 -1.941044809676912841e-01 9.136797529656703887e-02 -3.901252106515275264e-02 -2.284241658011728626e-01 2.153535255415599814e-01 2.843519108896982450e-01 6.110827464554526890e-03 -1.133455510290348328e-01 -5.650526677249478186e-02 6.087640675358624298e-02 -2.214384172196439959e-01 1.195131484570992747e-01 2.468599342519008921e-01 -1.298694133736598699e-01 2.836082832492445305e-02 -6.174458757394780256e-02 -2.306466071635289994e-01 -3.251942004201267555e-01 1.717519435825271001e-01 -2.379766448076023333e-02 1.127618210903578999e-01 3.964762422509703760e-02 -5.128009142631875100e-02 -1.977519802670828775e-01 2.059268499986032230e-01 -1.201246024343277131e-02 1.923608117339316304e-01 1.371608974297035821e-01 1.126598604354773769e-01 1.225529410593268094e-02 -5.049705667517371405e-02 6.097306751772775535e-02 3.343719770767000776e-02 1.544784318351364802e-02 1.173349613012928359e-02 -9.351328027371455520e-02 -3.865881650155447019e-02 -6.847046381385811682e-03 -1.601469824739845393e-01 -3.292853113828915490e-02 8.423452947099804508e-03 -2.696014420371238562e-02 1.285444479703503340e-01 2.208643338144344187e-02 5.011546692959903404e-02 -4.299958962918534744e-02 5.521865984565291208e-02 -6.812334236368032536e-02 2.794986074243045477e-03 -9.117926086038198596e-02 1.326024684829944233e-01 -5.177411474041353212e-02 1.879908259188370866e-03 -7.582440830477588101e-02 1.419296478343904377e-01 8.521988652208210835e-02 1.070717216121701704e-01 -6.835068747062032768e-02 -6.076867508264038875e-02 4.669928688888978774e-02 6.629388326419040356e-02 1.745784278835916734e-02 -5.521605340866218153e-02 8.691734833628977919e-02 3.472673480417978048e-02 4.198428431349059131e-02 1.259094841803253539e-01 -9.612216219544997275e-02 8.799863026676305044e-03 -1.246725355414187164e-01 9.197325848520013225e-02 -9.586749409420038115e-02 -2.854950934197417883e-02 -2.635442024463793831e-02 3.096082877534881567e-02 -2.318101432034525011e-02 -1.016777303770274171e-01
-7.941256762332583874e-02 -5.824273919432896608e-03 1.717668459808558909e-02 2.684753974136719346e-02 -2.361456339072816324e-01 -4.454453740206382878e-02 -2.133726253950906926e-01 1.312201816745054567e-02 2.484080007794020051e-01 2.431743167910682332e-02 -3.117601575541280590e-01 8.399056428169331123e-02 1.102817809236669028e-01 5.199483929083341394e-02 1.011567831804903866e-01 -1.237454109190191422e-02 2.055757847203827995e-03 -4.918022023576644475e-02 1.423584982418831246e-01 -1.931817719259939226e-01 9.090952992315513848e-02 -3.911012766384144163e-02 -2.273152630151729081e-01 2.140612699309728528e-01 2.836891819472280307e-01 5.621596947555531840e-03 -1.132385283676529825e-01 -5.613129523628676565e-02 6.033656376758451956e-02 -2.207618680044563797e-01 1.189344080129510206e-01 2.458350915188894648e-01 -1.290848728260138578e-01 2.838300254134285341e-02 -6.155905573924856655e-02 -2.296316040884403553e-01 -3.235941498595565347e-01 1.715191469419454773e-01 -2.379308979469039326e-02 1.120453277512186985e-01 3.930544441923542603e-02 -5.068983023376951585e-02 -1.967282874143141125e-01 2.046995054251101731e-01 -1.204634594996814578e-02 1.915720309419358391e-01 1.367933769591840598e-01 1.122973475861498288e-01 1.216977116240180491e-02 -5.008755012199249401e-02 6.059550797403769062e-02 3.330895381386029391e-02 1.554846277170552314e-02 1.153296133969973492e-02 -9.310371689238348958e-02 -3.824452920857648180e-02 -6.907253320766896035e-03 -1.591084244846288076e-01 -3.280894304993409866e-02 8.434035568181357315e-03 -2.662506254882139947e-02 1.274210324489694346e-01 2.203988393594755527e-02 4.996214336516611315e-02 -4.261671930487089671e-02 5.463531500822917109e-02 -6.779481079650961917e-02 2.693373173703901731e-03 -9.059239219720732761e-02 1.312061322910762495e-01 -5.108815532418637534e-02 1.811828023960157996e-03 -7.532207738696931887e-02 1.411516606776386795e-01 8.480791002646015375e-02 1.061394846960184435e-01 -6.787692138505982409e-02 -6.023938118664627639e-02 4.634261914330171234e-02 6.596342330546028920e-02 1.737990476854072916e-02 -5.484838189009881571e-02 8.641180372266457632e-02 3.467031408039990270e-02 4.164636380185306880e-02 1.250597234701542326e-01 -9.561535901544410132e-02 8.789767502979403332e-03 -1.238511988492542598e-01 9.119960344675878683e-02 -9.504019351627211731e-02 -2.821811640247747985e-02 -2.609005028906187171e-02 3.040666287191664402e-02 -2.273898673732722975e-02 -1.007887074485691731e-01
-7.864329476767284444e-02 -6.112707240454050110e-03 1.762201087496600635e-02 2.632344872271359312e-02 -2.355684555085323650e-01 -4.440456704740314287e-02 -2.118986640261562304e-01 1.338822790097716348e-02 2.471521806248159481e-01 2.428857873082157851e-02 -3.103269182725307829e-01 8.371020973997594927e-02 1.096915824203903989e-01 5.224248483660179354e-02 1.007848444618938410e-01 -1.270714201353934786e-02 2.434084739453525742e-03 -4.894096432773779176e-02 1.422146449019945635e-01 -1.918339746282571867e-01 9.043852497539295321e-02 -3.937805810134129003e-02 -2.256084254550416723e-01 2.122118089759953141e-01 2.828261071252586856e-01 4.853232001792037731e-03 -1.131789451333968383e-01 -5.543506393724327574e-02 5.960223102159765973e-02 -2.197614663869029150e-01 1.180907910696528812e-01 2.447083102341682526e-01 -1.281324871954091227e-01 2.819864321864534035e-02 -6.146074103456234533e-02 -2.283649443634246101e-01 -3.210898560681979541e-01 1.710774966225648841e-01 -2.375361066154410214e-02 1.107400257825209705e-01 3.866459880714757935e-02 -4.965971777778153962e-02 -1.954580181078596213e-01 2.028570881171265494e-01 -1.202529001679377395e-02 1.906923232729302309e-01 1.361033013299872974e-01 1.117680130576317737e-01 1.245250909955463413e-02 -4.975656206629527900e-02 6.009468947809296080e-02 3.257495377849629198e-02 1.531079647099779090e-02 1.093931440961962327e-02 -9.271820399931085532e-02 -3.774309242251378677e-02 -7.093347272463037222e-03 -1.575494656525483206e-01 -3.263858352703905702e-02 8.497902561513568168e-03 -2.631802591446557454e-02 1.256487623594565173e-01 2.190617815828098738e-02 4.997170096764071839e-02 -4.199241115005344915e-02 5.370851784592052536e-02 -6.734696837969680883e-02 2.747183107628327087e-03 -8.981086058510563686e-02 1.289852458813195157e-01 -5.012661434363995666e-02 1.531602226275951498e-03 -7.500419990691863104e-02 1.398165720623211483e-01 8.407033271056298107e-02 1.048779849593920871e-01 -6.719073782150904173e-02 -5.975790789392446123e-02 4.579165485979431321e-02 6.550275830470936311e-02 1.737956508881353251e-02 -5.415694449591838128e-02 8.557286202880907966e-02 3.466668582464183662e-02 4.101055672499369364e-02 1.237491040953085653e-01 -9.478673774170395805e-02 8.553002892327098150e-03 -1.225737180148133848e-01 8.994587690688699011e-02 -9.352198452926968608e-02 -2.731481465286371771e-02 -2.538476210616798234e-02 2.963758054274341636e-02 -2.193532658657448148e-02 -9.913482452252950217e-02
-7.838932017798243279e-02 -5.858549304418603394e-03 1.699025803457524658e-02 2.626422358090853282e-02 -2.322422469699839120e-01 -4.420709011035529185e-02 -2.103371422977935723e-01 1.203789220071524273e-02 2.436244344054218636e-01 2.252297421894071047e-02 -3.063890216419378199e-01 8.272360554659788368e-02 1.079390335923243460e-01 5.087454699992997875e-02 9.907115350952057364e-02 -1.164902718023001250e-02 1.072260837970533034e-03 -4.807801145481806898e-02 1.408608043701636281e-01 -1.900142626267469492e-01 8.787772470088281440e-02 -3.793388984090366456e-02 -2.240960688830231085e-01 2.109315669541037830e-01 2.785203002337885980e-01 5.241227364017580180e-03 -1.096994173475815543e-01 -5.593954942388888046e-02 5.992880742439050945e-02 -2.155246346405501334e-01 1.168271085266468362e-01 2.427466948293627580e-01 -1.282340275033243271e-01 2.885207037903245522e-02 -6.014659487656557474e-02 -2.254156017550641156e-01 -3.193863349199420609e-01 1.706191003919964588e-01 -2.332146532343907716e-02 1.110251772369974660e-01 3.779195156863764810e-02 -5.120301277392807354e-02 -1.924233436641407669e-01 2.025937850741340029e-01 -1.359952015504888902e-02 1.891697037433686390e-01 1.350847866596817104e-01 1.116856988148188234e-01 1.306645065393887729e-02 -4.912774826810182432e-02 5.897487745145554849e-02 3.359662050401202027e-02 1.567055944891259517e-02 1.067704412595056086e-02 -9.196853861685434783e-02 -3.807928711578584258e-02 -7.068976335631371039e-03 -1.545757851320135046e-01 -3.193660740323248093e-02 9.594261847239280230e-03 -2.594066346866237202e-02 1.233473474956811866e-01 2.134403208358927329e-02 4.918811290059026814e-02 -4.224525283439348189e-02 5.415703632250342542e-02 -6.645989526956544435e-02 2.531974339193516794e-03 -8.861989480756596316e-02 1.288250158583084393e-01 -4.955496732019384204e-02 1.635356842130158061e-03 -7.476086873612448891e-02 1.374908287348380886e-01 8.323062269157542603e-02 1.030947461380405938e-01 -6.596210722409291682e-02 -5.718847446199480655e-02 4.526509637468512787e-02 6.357190477044831478e-02 1.757258009079823782e-02 -5.429782344274097783e-02 8.475460846454414832e-02 3.424583878959241295e-02 4.100756838501248142e-02 1.223017536701862668e-01 -9.384127869091306307e-02 8.697178358078408791e-03 -1.204299861262040777e-01 8.906921504229210751e-02 -9.315470782322272936e-02 -2.817103831547182122e-02 -2.631232119365797817e-02 2.834495884407257568e-02 -2.118074269933776718e-02 -9.937622522933885205e-02
-7.749457937416465159e-02 -5.855538066672847340e-03 1.750427829334985294e-02 2.584166950464358847e-02 -2.306984279424298956e-01 -4.423708782350255914e-02 -2.080914344759380030e-01 1.225327433473485765e-02 2.411550142477326131e-01 2.261084814669611642e-02 -3.033711525555201627e-01 8.214346905398149656e-02 1.067857369004413248e-01 5.100464762827067178e-02 9.852204644619226570e-02 -1.184172673372809771e-02 1.277922093752927859e-03 -4.764928738277213888e-02 1.398187730749980151e-01 -1.881433828745215642e-01 8.669191201221369825e-02 -3.795384827766077468e-02 -2.218131149936271029e-01 2.086394979761509727e-01 2.768321351516488393e-01 4.224143609292178858e-03 -1.090471748379905903e-01 -5.490968858498967986e-02 5.892574906882708935e-02 -2.136954442218576833e-01 1.155763197920432472e-01 2.405854969194616277e-01 -1.269146795069155675e-01 2.880826208858389831e-02 -5.955425539232971077e-02 -2.231142150493791998e-01 -3.156934398149083831e-01 1.696374128560970695e-01 -2.331915771036402463e-02 1.093466975292381321e-01 3.682077270442254274e-02 -5.040378409304759749e-02 -1.901104479375260170e-01 2.000179653884024134e-01 -1.366122351318059536e-02 1.872795436127827062e-01 1.342600956936207401e-01 1.108966807597396853e-01 1.294266189568678456e-02 -4.846781869873757753e-02 5.789953782751847827e-02 3.294459757208213074e-02 1.568655859695373272e-02 1.005322113543200176e-02 -9.080523023397260585e-02 -3.749720066304784716e-02 -7.122632349795329255e-03 -1.523800320547012699e-01 -3.165198356556300774e-02 9.748049670243374640e-03 -2.505474765656647354e-02 1.209636735754313352e-01 2.105015997569325767e-02 4.890545446946833325e-02 -4.137867528312637322e-02 5.315830634950993727e-02 -6.546622391022063892e-02 2.440306112224381423e-03 -8.740723691443115506e-02 1.259552747544058493e-01 -4.828876453952632430e-02 1.613413396595436136e-03 -7.392281324551311372e-02 1.352356259750097378e-01 8.221595550144912556e-02 1.013322404985620706e-01 -6.501900638047651559e-02 -5.613422844252094479e-02 4.432821488161763079e-02 6.270789663583353768e-02 1.751237202433612861e-02 -5.371913960812472327e-02 8.377227099732621751e-02 3.389952950578144913e-02 4.013990338294866345e-02 1.205741242326431456e-01 -9.303804462121230412e-02 8.672538111214126919e-03 -1.184833200142372811e-01 8.760003707255714644e-02 -9.151452666379739087e-02 -2.738419604957502765e-02 -2.576748542678457266e-02 2.733306798807002419e-02 -2.040408632833596442e-02 -9.762954243703776680e-02
-7.673014244920441096e-02 -5.458751144909101613e-03 1.742688109395228863e-02 2.574022523651829653e-02 -2.273117650201128270e-01 -4.478145103962512946e-02 -2.059336820456288686e-01 1.065837634185511258e-02 2.377051861590007975e-01 2.216800966678741588e-02 -2.986549137006107579e-01 8.128975356029827237e-02 1.044267259740599973e-01 5.091728367982938097e-02 9.684187026801148457e-02 -1.081368640414405620e-02 9.795225823555999724e-04 -4.756182989397575445e-02 1.373018391199173072e-01 -1.864809110186739782e-01 8.460793269507148329e-02 -3.681324409002943027e-02 -2.199231153918654313e-01 2.064114080783913119e-01 2.730510233284958455e-01 3.767317263635340183e-03 -1.066847277865783650e-01 -5.462187655570584222e-02 5.772230525938597950e-02 -2.104238480925474941e-01 1.138647291632511188e-01 2.386554544546928835e-01 -1.261277089842018362e-01 2.917793902218132965e-02 -5.804417157017940920e-02 -2.194388467937011811e-01 -3.125416025197832459e-01 1.685998901161022967e-01 -2.296106522363539071e-02 1.082676882465316015e-01 3.599729041032219412e-02 -5.025350142892300032e-02 -1.871455645024625580e-01 1.986448464653310930e-01 -1.495964587881896263e-02 1.850851497260855572e-01 1.325576333127388706e-01 1.102563407627786402e-01 1.266289021892170324e-02 -4.688534102136546200e-02 5.715507479317828710e-02 3.236147055897526520e-02 1.597618635060888553e-02 9.649274788873781622e-03 -8.949299441689215207e-02 -3.752680986350846737e-02 -7.020019214089887917e-03 -1.498574445871446170e-01 -3.153202928638348251e-02 1.065968854580347236e-02 -2.443108081205721746e-02 1.187681195433893805e-01 2.074323464365927794e-02 4.779783496483507726e-02 -4.099872371412279642e-02 5.249414233500166588e-02 -6.464139354425843531e-02 2.186702826371153801e-03 -8.713908352401604496e-02 1.265090906348299016e-01 -4.710319103941135871e-02 1.846023470356825992e-03 -7.241068935158630204e-02 1.324222871605292839e-01 8.192883001607186022e-02 9.884463503422584452e-02 -6.440541923285347803e-02 -5.348868202144338446e-02 4.358481165978364547e-02 6.097804258370820296e-02 1.749718623781144899e-02 -5.346383926869757719e-02 8.320632639782581108e-02 3.350945842638088090e-02 4.013699195637839695e-02 1.190427246090073887e-01 -9.196261739618796782e-02 9.552396587335632711e-03 -1.165344357080684984e-01 8.597384273510352837e-02 -9.138867447203291583e-02 -2.889955346717024837e-02 -2.628249040032097292e-02 2.596298354971628489e-02 -2.009344638184388035e-02 -9.714485134425358825e-02
-7.583413470807089107e-02 -5.180197378445657724e-03 1.916900994309572032e-02 2.510865117879045386e-02 -2.267199589319626174e-01 -4.510411923395722666e-02 -2.020702010797703063e-01 1.126766346023727258e-02 2.358585259212140905e-01 2.307294060604551250e-02 -2.947122964032389270e-01 8.014624455655677826e-02 1.028933709868516122e-01 5.157670297485989624e-02 9.710223861582799321e-02 -1.194883410199035212e-02 3.489426860897883154e-04 -4.649928074287748569e-02 1.364032319644201408e-01 -1.832434748898821020e-01 8.300916457802559600e-02 -3.760215406577624431e-02 -2.166793315354399729e-01 2.026152642003276050e-01 2.721348297725653120e-01 1.568391883933232525e-03 -1.072385206563169352e-01 -5.191547446328223514e-02 5.586432735442402320e-02 -2.091505803207106828e-01 1.120200804914451426e-01 2.359235982710578550e-01 -1.243375972364219872e-01 2.879785057689184663e-02 -5.767381328194656070e-02 -2.160384177748721213e-01 -3.067256335924735677e-01 1.672174359868628946e-01 -2.363499549978933731e-02 1.050453890276896313e-01 3.380716905671837108e-02 -4.814258546642261744e-02 -1.838848928035099750e-01 1.945699756990212081e-01 -1.498408579540150623e-02 1.817106532914837813e-01 1.318321045423151427e-01 1.098463129391527154e-01 1.210204087764128571e-02 -4.506843844268382943e-02 5.579063570110955050e-02 3.051692041228803304e-02 1.605666858466190533e-02 7.891447048064706080e-03 -8.773295102584183214e-02 -3.552810124173227252e-02 -7.459122968181802413e-03 -1.473398557905542527e-01 -3.122685410076608131e-02 1.103641226070077412e-02 -2.315151874723140463e-02 1.144615571148765443e-01 2.098931384143977799e-02 4.825972580964369568e-02 -3.857584174798171089e-02 5.027652067528819158e-02 -6.341236199868423296e-02 2.056866560634487261e-03 -8.547122261732055526e-02 1.206703365399676986e-01 -4.556436711108059062e-02 1.786085691563748081e-03 -7.103052702777672145e-02 1.291879677190283238e-01 8.039097576086251529e-02 9.605872131869172548e-02 -6.311109427338149058e-02 -5.209988625932184675e-02 4.261429709866758342e-02 5.906518780708524402e-02 1.738268693557594100e-02 -5.205271216209140378e-02 8.128628984514696398e-02 3.358601510720231331e-02 3.774556803543773625e-02 1.157978051960865673e-01 -9.184788887313272143e-02 8.931158870031227423e-03 -1.134417323978860886e-01 8.317008722975269275e-02 -8.733447075580441643e-02 -2.579517731124202420e-02 -2.509281064936979416e-02 2.385090839022547746e-02 -1.788952507508275586e-02 -9.426694474495848908e-02
-7.409124682258221017e-02 -5.333544008204930617e-03 1.902313797951695265e-02 2.416633202433540045e-02 -2.217419761694964520e-01 -4.493406269119305102e-02 -1.993160251297123042e-01 1.043822044116539741e-02 2.297609881300860246e-01 2.183237162714269167e-02 -2.885765755150974110e-01 7.906973362237686154e-02 1.003638329374816618e-01 5.125145079234544321e-02 9.436853375345548300e-02 -1.104770454956142435e-02 9.360530721156600734e-04 -4.631205915128135120e-02 1.338646702582113601e-01 -1.799668435121961618e-01 8.078187692742137826e-02 -3.644538651794000661e-02 -2.125156602494783775e-01 1.984429832578775421e-01 2.666150785406112278e-01 7.825241068042716351e-04 -1.037423956336365749e-01 -5.213358691013976476e-02 5.416322862179825948e-02 -2.037224761339448131e-01 1.094155314175697113e-01 2.319469131556351760e-01 -1.224294291058447837e-01 2.913681167309526213e-02 -5.594596990232095918e-02 -2.113558577239230130e-01 -3.014062541892255642e-01 1.657066493019070941e-01 -2.312131237094337821e-02 1.033775918459079318e-01 3.279206994606057024e-02 -4.768241119945110934e-02 -1.791530417299697642e-01 1.915772501099775316e-01 -1.603802173582644791e-02 1.791100423993136626e-01 1.293668006212487787e-01 1.080150277171567363e-01 1.235674234284825888e-02 -4.393082928191820863e-02 5.395321316914702958e-02 3.021825620909319998e-02 1.585902582412717157e-02 7.645365693756409411e-03 -8.585466890723451872e-02 -3.544217324286488835e-02 -7.192352164062186526e-03 -1.426997806908123501e-01 -3.076977825268121733e-02 1.165611762444447239e-02 -2.188994262993512741e-02 1.108554056139877675e-01 2.034871720321466265e-02 4.679881947921827462e-02 -3.848827752901843452e-02 4.930042067975479864e-02 -6.168441511206693151e-02 1.568750450945071914e-03 -8.337516078128347219e-02 1.185941036985679181e-01 -4.301964023476063242e-02 2.084989209823156445e-03 -6.920016332770100032e-02 1.249435634346960228e-01 7.929723447674327796e-02 9.221508584900414696e-02 -6.115899426455510129e-02 -4.876229941675137153e-02 4.076854005481485299e-02 5.732204476780058261e-02 1.728317171231091853e-02 -5.128901229577223497e-02 7.969231566167196690e-02 3.282285141794599043e-02 3.832415963002498011e-02 1.133193165045516815e-01 -8.911975552364140296e-02 9.269221939029230473e-03 -1.105642367980803481e-01 8.072605195290452618e-02 -8.631266622839156577e-02 -2.694749024982024885e-02 -2.518866157186831073e-02 2.206399106829084328e-02 -1.726464958017580320e-02 -9.233173465289233606e-02
-2.046969999999999901e-01 -7.258699999999999875e-02 -1.141130000000000061e-01 -7.086499999999999744e-02 -1.861649999999999971e-01 -5.669199999999999934e-02 -2.012869999999999937e-01 1.118999999999999986e-03 5.807809999999999917e-01 -5.107699999999999740e-02 -5.427070000000000505e-01 6.089200000000000168e-02 3.649569999999999759e-01 1.313600000000000045e-01 3.435070000000000068e-01 -8.723899999999999710e-02 -4.924200000000000105e-02 -6.764199999999999380e-02 1.606529999999999903e-01 -2.549930000000000252e-01 2.979069999999999774e-01 1.843470000000000109e-01 -4.805869999999999864e-01 6.925050000000000372e-01 5.149110000000000076e-01 4.680100000000000232e-02 -8.627500000000000446e-02 -3.467589999999999839e-01 -1.966239999999999932e-01 -5.002780000000000005e-01 2.739309999999999801e-01 2.455730000000000135e-01 -1.015319999999999973e-01 -1.830899999999999889e-02 -7.899599999999999678e-02 -4.519619999999999749e-01 -6.928389999999999826e-01 5.246030000000000415e-01 -5.116549999999999709e-01 1.188310000000000061e-01 -1.011800000000000026e-02 -1.269760000000000055e-01 -1.491750000000000020e-01 2.467769999999999964e-01 -5.313699999999999674e-02 4.403880000000000017e-01 6.382170000000000343e-01 1.200569999999999971e-01 -5.433299999999999935e-02 6.204500000000000293e-02 8.429200000000000581e-02 2.096609999999999863e-01 4.291999999999999982e-02 6.993599999999999817e-02 -2.021679999999999866e-01 -8.195900000000000407e-02 -5.808200000000000168e-02 -2.504370000000000207e-01 -1.094019999999999992e-01 2.672199999999999923e-02 -1.458589999999999887e-01 2.717249999999999943e-01 -6.286200000000000121e-02 2.141849999999999865e-01 -5.383999999999999897e-02 8.775600000000000067e-02 -1.270229999999999970e-01 5.341300000000000214e-02 -2.635480000000000045e-01 2.020389999999999964e-01 -1.489500000000000025e-02 1.721870000000000067e-01 -9.805899999999999339e-02 7.305999999999999994e-02 1.690899999999999903e-01 1.432759999999999867e-01 -1.228510000000000019e-01 -6.895300000000000040e-02 1.229539999999999939e-01 -4.234099999999999669e-02 1.366519999999999957e-01 -3.936599999999999822e-02 2.641359999999999819e-01 -1.395609999999999906e-01 -5.052000000000000067e-03 2.275490000000000013e-01 -2.293580000000000063e-01 -2.055999999999999842e-02 -2.013149999999999940e-01 2.771649999999999947e-01 -2.249659999999999993e-01 -2.226460000000000106e-01 1.559999999999999972e-03 3.872699999999999754e-02 -1.041399999999999965e-01 -2.275580000000000103e-01
-2.035649999999999959e-01 -1.244750000000000023e-01 -1.315790000000000015e-01 -5.753799999999999887e-02 -1.928920000000000079e-01 -6.746000000000000607e-02 -2.028749999999999998e-01 8.796900000000000552e-02 6.150480000000000391e-01 -6.234100000000000058e-02 -5.805390000000000272e-01 2.908399999999999874e-02 3.615550000000000153e-01 9.220499999999999530e-02 3.297180000000000111e-01 -8.723699999999999510e-02 -8.750299999999999745e-02 -7.634599999999999720e-02 1.878900000000000015e-01 -2.309219999999999884e-01 2.884720000000000062e-01 1.613719999999999877e-01 -4.888410000000000255e-01 6.957619999999999916e-01 5.589439999999999964e-01 8.071899999999999908e-02 -8.203699999999999881e-02 -3.777099999999999902e-01 -1.812590000000000034e-01 -5.016749999999999821e-01 2.408480000000000065e-01 2.554910000000000236e-01 -6.993599999999999817e-02 -6.650999999999999794e-03 -3.294699999999999712e-02 -4.535959999999999992e-01 -7.069400000000000128e-01 5.353339999999999765e-01 -5.797949999999999493e-01 1.329750000000000099e-01 -3.375600000000000128e-02 -9.655299999999999994e-02 -2.027190000000000103e-01 2.551530000000000187e-01 -8.559100000000000041e-02 4.249370000000000092e-01 6.323079999999999812e-01 9.011500000000000066e-02 -8.553600000000000092e-02 9.103899999999999493e-02 8.222400000000000542e-02 2.361570000000000058e-01 8.219400000000000317e-02 6.119200000000000333e-02 -1.791179999999999994e-01 -7.326599999999999779e-02 -7.219200000000000617e-02 -2.310280000000000111e-01 -1.904889999999999917e-01 7.426699999999999968e-02 -1.305080000000000129e-01 2.703510000000000080e-01 -3.983300000000000035e-02 2.238920000000000077e-01 -3.805999999999999661e-02 1.004430000000000045e-01 -1.034469999999999973e-01 1.023800000000000057e-02 -2.750670000000000059e-01 1.620270000000000044e-01 6.285999999999999921e-03 1.651870000000000005e-01 -5.166799999999999865e-02 7.399999999999999634e-02 1.689259999999999928e-01 1.667210000000000081e-01 -1.376880000000000048e-01 -3.900599999999999901e-02 1.495350000000000013e-01 -6.105100000000000110e-02 1.289500000000000091e-01 -5.056200000000000278e-02 2.565149999999999930e-01 -1.522940000000000127e-01 -8.531000000000000388e-03 2.467149999999999899e-01 -1.947679999999999967e-01 -6.395199999999999496e-02 -1.950500000000000012e-01 3.121499999999999830e-01 -2.438150000000000039e-01 -2.295349999999999890e-01 1.228199999999999951e-02 4.914600000000000218e-02 -9.596499999999999475e-02 -2.398299999999999876e-01