 vasp.6.4.2 20Jul23 (build Nov 10 2023 10:17:07) gamma-only                     
  
 executed on             LinuxIFC date 2024.03.07  16:04:45
 running    1 mpi-ranks, on    1 nodes
 distrk:  each k-point on    1 cores,    1 groups
 distr:  one band on NCORE=   1 cores,    1 groups


--------------------------------------------------------------------------------------------------------


 INCAR:
   ISTART = 1            (Read existing wavefunction, if there)
   ISPIN = 1            (Non-Spin polarised DFT)
   LREAL = Auto       (Projection operators: automatic)
   ENCUT = 450        (Cut-off energy for plane wave basis set, in eV)
   PREC = Accurate   (Precision level: Normal or Accurate, set Accurate when perform structure lattice relaxation calculation)
   LWAVE = .FALSE.        (Write WAVECAR or not)
   LCHARG = .FALSE.        (Write CHGCAR or not)
   ADDGRID = .TRUE.        (Increase grid, helps GGA convergence)
   EDIFF = 1E-06
   KPAR = 4           (Divides k-grid into separate groups)
   NPAR = 2           (Divides k-grid into separate groups)
   NSW = 6           (number of ionic steps)
   ISMEAR = 1            (gaussian smearing method )
   SIGMA = 0.1         (please check the width of the smearing)
   IBRION = 0            (Algorithm: 0-MD, 1-Quasi-New, 2-CG)
   ISIF = 2            (optimize atomic coordinates and lattice parameters)
   KSPACING = 1
   TEBEG = 300
   TEEND = 300
   POTIM = 2.0
   ISYM = 0
   SMASS = 0
   MDALGO = 2
   IWAVPR = 11

 POTCAR:    PAW_PBE Si 05Jan2001                  
 -----------------------------------------------------------------------------
|                                                                             |
|           W    W    AA    RRRRR   N    N  II  N    N   GGGG   !!!           |
|           W    W   A  A   R    R  NN   N  II  NN   N  G    G  !!!           |
|           W    W  A    A  R    R  N N  N  II  N N  N  G       !!!           |
|           W WW W  AAAAAA  RRRRR   N  N N  II  N  N N  G  GGG   !            |
|           WW  WW  A    A  R   R   N   NN  II  N   NN  G    G                |
|           W    W  A    A  R    R  N    N  II  N    N   GGGG   !!!           |
|                                                                             |
|     The value NPAR = 2 specified in the INCAR file was overwritten,         |
|     because it was not compatible with the 1 processes available:           |
|     NPAR = 1                                                                |
|     was used instead, please check that this makes sense for your           |
|     machine.                                                                |
|                                                                             |
 -----------------------------------------------------------------------------

 POTCAR:    PAW_PBE Si 05Jan2001                  
   SHA256 =  79d9987ad8750f624c4d6acb2a16d13abf6a777132adc04dc6c8399be72b42bb Si/POTCAR             
   COPYR  = (c) Copyright 05Jan2001 Georg Kresse                                                    
   COPYR  = This file is part of the software VASP. Any use, copying, and all other rights are regul
   COPYR  = If you do not have a valid VASP license, you may not use, copy or distribute this file. 
   VRHFIN =Si: s2p2                                                                                 
   LEXCH  = PE                                                                                      
   EATOM  =   103.0669 eV,    7.5752 Ry                                                             
                                                                                                    
   TITEL  = PAW_PBE Si 05Jan2001                                                                    
   LULTRA =        F    use ultrasoft PP ?                                                          
   IUNSCR =        1    unscreen: 0-lin 1-nonlin 2-no                                               
   RPACOR =    1.500    partial core radius                                                         
   POMASS =   28.085; ZVAL   =    4.000    mass and valenz                                          
   RCORE  =    1.900    outmost cutoff radius                                                       
   RWIGS  =    2.480; RWIGS  =    1.312    wigner-seitz radius (au A)                               
   ENMAX  =  245.345; ENMIN  =  184.009 eV                                                          
   ICORE  =        2    local potential                                                             
   LCOR   =        T    correct aug charges                                                         
   LPAW   =        T    paw PP                                                                      
   EAUG   =  322.069                                                                                
   DEXC   =    0.000                                                                                
   RMAX   =    1.950    core radius for proj-oper                                                   
   RAUG   =    1.300    factor for augmentation sphere                                              
   RDEP   =    1.993    radius for radial grids                                                     
   RDEPT  =    1.837    core radius for aug-charge                                                  
                                                                                                    
   Atomic configuration                                                                             
    6 entries                                                                                       
     n  l   j            E        occ.                                                              
     1  0  0.50     -1785.8828   2.0000                                                             
     2  0  0.50      -139.4969   2.0000                                                             
     2  1  1.50       -95.5546   6.0000                                                             
     3  0  0.50       -10.8127   2.0000                                                             
     3  1  0.50        -4.0811   2.0000                                                             
     3  2  1.50        -4.0817   0.0000                                                             
   Description                                                                                      
     l       E           TYP  RCUT    TYP  RCUT                                                     
     0    -10.8127223     23  1.900                                                                 
     0     -7.6451159     23  1.900                                                                 
     1     -4.0811372     23  1.900                                                                 
     1      2.4879257     23  1.900                                                                 
     2     -4.0817478      7  1.900                                                                 
  local pseudopotential read in
  partial core-charges read in
  partial kinetic energy density read in
  atomic valenz-charges read in
  non local Contribution for L=           0  read in
    real space projection operators read in
  non local Contribution for L=           0  read in
    real space projection operators read in
  non local Contribution for L=           1  read in
    real space projection operators read in
  non local Contribution for L=           1  read in
    real space projection operators read in
    PAW grid and wavefunctions read in
 
   number of l-projection  operators is LMAX  =           4
   number of lm-projection operators is LMMAX =           8
 
 Optimization of the real space projectors (new method)

 maximal supplied QI-value         = 19.84
 optimisation between [QCUT,QGAM] = [ 10.71, 21.63] = [ 32.15,130.99] Ry 
 Optimized for a Real-space Cutoff    1.23 Angstroem

   l    n(q)    QCUT    max X(q) W(low)/X(q) W(high)/X(q)  e(spline) 
   0      8    10.715   159.560    0.14E-03    0.42E-04    0.45E-07
   0      8    10.715   115.863    0.14E-03    0.42E-04    0.45E-07
   1      7    10.715    88.339    0.12E-03    0.33E-03    0.82E-07
   1      7    10.715    48.592    0.11E-03    0.32E-03    0.80E-07
  PAW_PBE Si 05Jan2001                  :
 energy of atom  1       EATOM= -103.0669
 kinetic energy error for atom=    0.0009 (will be added to EATOM!!)
 
 
 POSCAR: Created from POSCAR
  positions in direct lattice
  No initial velocities read in

  MD-specific parameters
                MDALGO =   2
                 CNEXP =     9.000   14.000
 exchange correlation table for  LEXCH =        8
   RHO(1)=    0.500       N(1)  =     2000
   RHO(2)=  100.500       N(2)  =     4000
 


--------------------------------------------------------------------------------------------------------


 ion  position               nearest neighbor table
   1  0.125  0.375  0.063-  26 2.12  57 2.12  12 2.12  43 2.14
   2  0.375  0.374  0.188-  62 2.11  47 2.12  26 2.13  13 2.14
   3  0.374  0.376  0.437-  33 2.10  61 2.13  27 2.14  72 2.14
   4  0.376  0.875  0.187-  32 2.12  45 2.12  28 2.13  11 2.15
   5  0.375  0.875  0.438-  46 2.11 112 2.12  29 2.13  70 2.13
   6  0.875  0.375  0.188-  31 2.12  17 2.12  43 2.13  58 2.13
   7  0.876  0.375  0.438-  44 2.11 121 2.12  15 2.14  76 2.14
   8  0.874  0.875  0.188-  60 2.11  63 2.12  16 2.13  41 2.13
   9  0.875  0.875  0.437-  42 2.11 123 2.12  64 2.12  74 2.14
  10  0.250  1.000  0.000-  35 2.11 114 2.12  18 2.12  95 2.15
  11  0.250  1.000  0.251-  36 2.10  49 2.13  19 2.14   4 2.15
  12  0.251  0.499  0.000-   1 2.12  20 2.12  77 2.13 116 2.13
  13  0.250  0.499  0.250-  34 2.12  21 2.13   2 2.14  51 2.14
  14  0.750  1.000  0.000-  22 2.12  39 2.12 118 2.12  69 2.14
  15  0.750  0.249  0.375-  54 2.12  23 2.12  38 2.13   7 2.14
  16  0.749  0.001  0.250-  53 2.11  23 2.12  40 2.12   8 2.13
  17  0.750  0.499  0.250-  38 2.12   6 2.12  55 2.13  25 2.13
  18  0.375  0.124  0.063- 125 2.11  45 2.12  10 2.12  26 2.13
  19  0.375  0.126  0.314-  27 2.11  46 2.13  47 2.13  11 2.14
  20  0.375  0.625  0.062-  48 2.11  12 2.12  62 2.12  28 2.13
  21  0.375  0.625  0.313-  32 2.11  33 2.12  13 2.13  29 2.14
  22  0.874  0.125  0.062-  14 2.12  57 2.13  31 2.14  41 2.14
  23  0.874  0.125  0.313-  42 2.12  16 2.12  15 2.12  58 2.14
  24  0.874  0.625  0.062-  59 2.11  30 2.13  43 2.13  63 2.14
  25  0.876  0.624  0.313-  44 2.11  60 2.12  17 2.13  64 2.15
  26  0.250  0.250  0.124-   1 2.12  18 2.13  49 2.13   2 2.13
  27  0.250  0.249  0.375-  19 2.11  50 2.12  34 2.13   3 2.14
  28  0.251  0.749  0.125-  51 2.11  20 2.13   4 2.13  35 2.14
  29  0.250  0.750  0.375-  52 2.11  36 2.12   5 2.13  21 2.14
  30  0.749  0.499  0.000-  37 2.11  24 2.13 120 2.13  67 2.13
  31  0.750  0.251  0.125-  37 2.12  53 2.12   6 2.12  22 2.14
  32  0.498  0.749  0.250-  21 2.11   4 2.12  40 2.14  55 2.14
  33  0.499  0.500  0.375-   3 2.10  21 2.12  56 2.14  38 2.15
  34  0.124  0.374  0.313-  58 2.10  13 2.12  27 2.13  44 2.14
  35  0.125  0.875  0.062-  10 2.11  59 2.12  28 2.14  41 2.14
  36  0.126  0.875  0.312-  11 2.10  29 2.12  60 2.13  42 2.15
  37  0.625  0.374  0.063-  30 2.11  31 2.12 125 2.13  62 2.15
  38  0.625  0.374  0.312-  17 2.12  47 2.12  15 2.13  33 2.15
  39  0.625  0.874  0.062-  14 2.12  48 2.12  63 2.13  45 2.14
  40  0.624  0.875  0.312-  16 2.12  46 2.13  64 2.13  32 2.14
  41  0.001  0.000  0.126-  49 2.11   8 2.13  35 2.14  22 2.14
  42  0.999  0.000  0.375-   9 2.11  23 2.12  50 2.13  36 2.15
  43  0.001  0.501  0.125-  51 2.12   6 2.13  24 2.13   1 2.14
  44  0.999  0.500  0.375-  25 2.11   7 2.11  52 2.14  34 2.14
  45  0.500  0.001  0.125-  18 2.12   4 2.12  53 2.13  39 2.14
  46  0.500  0.999  0.375-   5 2.11  54 2.12  19 2.13  40 2.13
  47  0.500  0.250  0.250-   2 2.12  38 2.12  19 2.13  53 2.13
  48  0.500  0.749  1.000-  20 2.11  39 2.12  95 2.13 120 2.13
  49  0.124  0.126  0.188-  41 2.11  58 2.12  26 2.13  11 2.13
  50  0.125  0.125  0.438-  27 2.12  42 2.13  70 2.13 121 2.14
  51  0.125  0.625  0.187-  28 2.11  43 2.12  60 2.14  13 2.14
  52  0.126  0.625  0.438-  29 2.11  72 2.12 123 2.13  44 2.14
  53  0.625  0.125  0.188-  16 2.11  31 2.12  45 2.13  47 2.13
  54  0.625  0.125  0.437-  15 2.12  46 2.12  61 2.13  74 2.13
  55  0.625  0.624  0.187-  62 2.12  63 2.12  17 2.13  32 2.14
  56  0.626  0.625  0.437-  64 2.11  76 2.11  33 2.14 112 2.14
  57  0.000  0.251  1.000-  67 2.12   1 2.12  22 2.13 114 2.14
  58  0.002  0.251  0.250-  34 2.10  49 2.12   6 2.13  23 2.14
  59  0.000  0.749  0.001-  24 2.11  35 2.12  69 2.13 116 2.14
  60  1.000  0.750  0.250-   8 2.11  25 2.12  36 2.13  51 2.14
  61  0.500  0.250  0.499-  92 2.13   3 2.13  54 2.13 101 2.14
  62  0.499  0.500  0.126-   2 2.11  55 2.12  20 2.12  37 2.15
  63  0.751  0.751  0.126-   8 2.12  55 2.12  39 2.13  24 2.14
  64  0.750  0.750  0.375-  56 2.11   9 2.12  40 2.13  25 2.15
  65  0.124  0.375  0.562- 121 2.12  86 2.12  72 2.12 107 2.13
  66  0.875  0.375  0.687- 107 2.11 122 2.12  90 2.13  78 2.14
  67  0.875  0.375  0.938-  57 2.12 108 2.12  91 2.13  30 2.13
  68  0.875  0.875  0.687- 127 2.12 124 2.12 105 2.12  75 2.15
  69  0.877  0.875  0.938- 106 2.11  59 2.13 128 2.13  14 2.14
  70  0.250  0.998  0.500-  99 2.11   5 2.13  92 2.13  50 2.13
  71  0.250  0.999  0.750- 100 2.11  94 2.13  98 2.13  79 2.14
  72  0.250  0.501  0.501-  80 2.12  65 2.12  52 2.12   3 2.14
  73  0.250  0.501  0.750- 113 2.12 115 2.12  93 2.14  81 2.14
  74  0.751  1.000  0.500- 103 2.12  54 2.13  82 2.13   9 2.14
  75  0.749  0.000  0.749- 117 2.12  83 2.13 104 2.13  68 2.15
  76  0.749  0.500  0.500-  56 2.11 101 2.12  84 2.14   7 2.14
  77  0.376  0.376  0.938-  97 2.11 125 2.13  87 2.13  12 2.13
  78  0.750  0.499  0.750- 102 2.12 119 2.12  66 2.14  85 2.14
  79  0.376  0.126  0.813- 126 2.11  87 2.12 110 2.12  71 2.14
  80  0.376  0.625  0.563-  72 2.12 111 2.12 112 2.12  88 2.14
  81  0.375  0.625  0.813-  97 2.11  96 2.13  89 2.13  73 2.14
  82  0.875  0.127  0.563- 121 2.10  90 2.13  74 2.13 105 2.14
  83  0.875  0.124  0.812- 122 2.12 106 2.12  75 2.13  91 2.13
  84  0.874  0.625  0.563- 123 2.13 127 2.13 107 2.13  76 2.14
  85  0.876  0.626  0.813- 124 2.11 108 2.11  78 2.14 128 2.15
  86  0.250  0.251  0.625-  65 2.12  98 2.12  93 2.13  92 2.15
  87  0.251  0.249  0.875-  79 2.12 114 2.12  77 2.13 113 2.14
  88  0.249  0.750  0.625- 115 2.11  99 2.12  80 2.14  94 2.14
  89  0.250  0.750  0.875-  95 2.11 116 2.11 100 2.12  81 2.13
  90  0.750  0.250  0.625- 101 2.12 117 2.12  66 2.13  82 2.13
  91  0.750  0.249  0.875- 102 2.11 118 2.12  83 2.13  67 2.13
  92  0.375  0.124  0.563- 109 2.12  61 2.13  70 2.13  86 2.15
  93  0.376  0.375  0.687- 111 2.11  86 2.13 126 2.13  73 2.14
  94  0.375  0.875  0.688- 109 2.13  71 2.13  96 2.13  88 2.14
  95  0.375  0.874  0.937-  89 2.11 110 2.12  48 2.13  10 2.15
  96  0.501  0.749  0.750- 104 2.12 119 2.13  81 2.13  94 2.13
  97  0.500  0.501  0.875-  81 2.11  77 2.11 120 2.12 102 2.15
  98  0.125  0.125  0.688- 105 2.12  86 2.12  71 2.13 122 2.14
  99  0.125  0.875  0.562-  70 2.11  88 2.12 123 2.12 105 2.13
 100  0.126  0.875  0.813-  71 2.11  89 2.12 124 2.13 106 2.15
 101  0.625  0.375  0.563-  90 2.12  76 2.12 111 2.13  61 2.14
 102  0.626  0.375  0.813-  91 2.11  78 2.12 126 2.14  97 2.15
 103  0.625  0.874  0.563-  74 2.12 112 2.12 127 2.12 109 2.14
 104  0.624  0.875  0.812-  96 2.12 110 2.13  75 2.13 128 2.13
 105  0.001  0.000  0.625-  98 2.12  68 2.12  99 2.13  82 2.14
 106  1.000  0.000  0.875-  69 2.11  83 2.12 114 2.13 100 2.15
 107  0.000  0.499  0.625-  66 2.11 115 2.13  65 2.13  84 2.13
 108  0.999  0.500  0.875-  85 2.11  67 2.12 116 2.12 113 2.15
 109  0.500  0.000  0.625- 117 2.11  92 2.12  94 2.13 103 2.14
 110  0.500  0.999  0.875-  95 2.12  79 2.12 104 2.13 118 2.13
 111  0.500  0.500  0.625-  93 2.11  80 2.12 119 2.13 101 2.13
 112  0.500  0.751  0.500-  80 2.12   5 2.12 103 2.12  56 2.14
 113  0.126  0.376  0.812-  73 2.12 122 2.14  87 2.14 108 2.15
 114  0.126  0.125  0.938-  10 2.12  87 2.12 106 2.13  57 2.14
 115  0.125  0.625  0.687-  88 2.11  73 2.12 107 2.13 124 2.15
 116  0.125  0.625  0.937-  89 2.11 108 2.12  12 2.13  59 2.14
 117  0.624  0.125  0.687- 109 2.11  75 2.12  90 2.12 126 2.14
 118  0.625  0.125  0.938-  91 2.12  14 2.12 110 2.13 125 2.14
 119  0.625  0.625  0.687- 127 2.12  78 2.12  96 2.13 111 2.13
 120  0.625  0.626  0.937- 128 2.10  97 2.12  48 2.13  30 2.13
 121  0.999  0.250  0.500-  82 2.10  65 2.12   7 2.12  50 2.14
 122  0.999  0.250  0.750-  83 2.12  66 2.12 113 2.14  98 2.14
 123  0.000  0.750  0.500-  99 2.12   9 2.12  84 2.13  52 2.13
 124  0.999  0.751  0.750-  85 2.11  68 2.12 100 2.13 115 2.15
 125  0.500  0.249  0.000-  18 2.11  77 2.13  37 2.13 118 2.14
 126  0.500  0.250  0.751-  79 2.11  93 2.13 102 2.14 117 2.14
 127  0.750  0.750  0.625-  68 2.12 119 2.12 103 2.12  84 2.13
 128  0.749  0.751  0.876- 120 2.10 104 2.13  69 2.13  85 2.15
 

IMPORTANT INFORMATION: All symmetrisations will be switched off!
NOSYMM: (Re-)initialisation of all symmetry stuff for point group C_1.


----------------------------------------------------------------------------------------

                                     Primitive cell                                     

  volume of cell :    1893.6282

  direct lattice vectors                    reciprocal lattice vectors
     9.834358349  0.000000000  0.000000000     0.101684316  0.000574071  0.000188654
    -0.056089752  9.935093649  0.000000000     0.000000000  0.100653304 -0.000665437
    -0.036680821  0.128131412 19.381024010     0.000000000  0.000000000  0.051596861

  length of vectors
     9.834358349  9.935251979 19.381482266     0.101686111  0.100655504  0.051596861

  position of ions in fractional coordinates (direct lattice)
     0.125212489  0.374615346  0.062827841
     0.375357937  0.374306035  0.187506036
     0.374441224  0.376053548  0.437246050
     0.375655311  0.875090574  0.187425373
     0.375108733  0.875269568  0.437501372
     0.874581110  0.375296624  0.187831229
     0.875635816  0.375438013  0.437567920
     0.874371635  0.875346936  0.188311602
     0.875289277  0.875374236  0.437385875
     0.249951719  0.999667608  0.000303920
     0.249639327  0.999824979  0.250652378
     0.250558313  0.499486583  0.000096071
     0.250267456  0.499016105  0.250499902
     0.750421540  0.999582493  0.000001446
     0.750345631  0.249305731  0.374816731
     0.749480902  0.000696518  0.249661166
     0.750385963  0.499228189  0.250061959
     0.374573269  0.124451494  0.062550914
     0.374838687  0.125719649  0.313650790
     0.375118391  0.624837396  0.062491921
     0.375330480  0.624741107  0.312692049
     0.874321697  0.125088100  0.062305761
     0.873864228  0.124936966  0.312529828
     0.874296344  0.624731299  0.062216008
     0.876228506  0.624414399  0.312642251
     0.250435510  0.249613622  0.124412529
     0.249589296  0.248859478  0.374744699
     0.250582822  0.748967946  0.124825416
     0.250206259  0.749805742  0.375140230
     0.749399837  0.498938451  0.000026130
     0.750199179  0.250902888  0.125150136
     0.498420350  0.748856552  0.249744264
     0.499065432  0.499535686  0.375032647
     0.124332822  0.374383722  0.312524628
     0.124722524  0.874982023  0.062324607
     0.126048572  0.874824064  0.312394049
     0.625404859  0.374355774  0.062562973
     0.625043062  0.374225791  0.312314647
     0.624740182  0.874260456  0.062405378
     0.624425443  0.875158054  0.312407311
     0.000884735  0.000210623  0.125721901
     0.999260094  0.000229971  0.374683303
     0.000843567  0.500620565  0.125126905
     0.999325572  0.500487997  0.375092744
     0.500153088  0.000631049  0.124772492
     0.500386603  0.999365493  0.375437858
     0.500243637  0.250190590  0.249861146
     0.499837096  0.749368109  0.999951675
     0.124363443  0.125535161  0.187718171
     0.124716738  0.124597159  0.437503143
     0.124978261  0.625364424  0.187330617
     0.126039083  0.625486547  0.437769272
     0.625345715  0.125459779  0.187552184
     0.625089104  0.125051567  0.437474500
     0.625159297  0.623986041  0.187418384
     0.626044999  0.625425083  0.437391198
     0.000131040  0.251187634  0.999878833
     0.001989010  0.250850959  0.250069554
     0.000366814  0.749373484  0.000681842
     0.999584903  0.750180337  0.249727407
     0.499551886  0.249676313  0.499385510
     0.499376570  0.500191317  0.125552110
     0.750534869  0.750756766  0.125527415
     0.750023136  0.750000970  0.375274583
     0.124489878  0.374769476  0.562339818
     0.875492799  0.374924343  0.687120826
     0.875047868  0.374861935  0.937542140
     0.875343519  0.874651346  0.687075108
     0.876868291  0.875189313  0.937603277
     0.249918925  0.998460049  0.500010828
     0.250220881  0.999490280  0.750304791
     0.250348344  0.500809731  0.500595105
     0.250409015  0.500717844  0.749523443
     0.750567998  0.999734756  0.500256941
     0.749294298  0.000440791  0.749438267
     0.748921529  0.500038004  0.499779135
     0.375624791  0.375506174  0.937562327
     0.750110558  0.499323191  0.749647015
     0.375531262  0.126115569  0.813435283
     0.375830242  0.624925629  0.562690936
     0.375303102  0.625376773  0.813488236
     0.875188659  0.126843346  0.562506386
     0.874846605  0.124195342  0.812318500
     0.874422878  0.625453018  0.562683281
     0.875902548  0.625620574  0.812524009
     0.249965508  0.250915204  0.624917770
     0.250743479  0.249257244  0.875364569
     0.249133430  0.749631628  0.624656143
     0.249728388  0.750369350  0.875420173
     0.749654504  0.249844227  0.625026771
     0.750168912  0.249298091  0.874554729
     0.375140405  0.124240097  0.562560095
     0.375752099  0.375390134  0.687453731
     0.374794887  0.875009855  0.687796648
     0.374768279  0.874034316  0.937127230
     0.501242858  0.749243814  0.749771749
     0.499543128  0.501063941  0.875467847
     0.124884008  0.125327325  0.687535285
     0.124534484  0.874685978  0.562208336
     0.125789222  0.874812836  0.812519513
     0.624852366  0.374609441  0.562847507
     0.626386563  0.374806091  0.812983279
     0.625287836  0.874444345  0.562532355
     0.624494400  0.874836772  0.812465184
     0.000985697  0.000390388  0.624931503
     0.999740680  0.000266847  0.875279503
     0.000139158  0.499241612  0.624825994
     0.999026537  0.500475745  0.875069313
     0.500396857  0.000334676  0.624957914
     0.500379638  0.999010175  0.874939320
     0.499877661  0.499683540  0.625108082
     0.500125343  0.750509878  0.499878842
     0.126046822  0.375601078  0.812184465
     0.125614060  0.124856676  0.938277227
     0.125069857  0.624910131  0.687269767
     0.124944286  0.624800722  0.937164426
     0.624402043  0.124717814  0.687328256
     0.625109069  0.124612504  0.937660180
     0.625115386  0.624682885  0.687460858
     0.625164919  0.625656099  0.937325904
     0.999426434  0.250131011  0.500216336
     0.999429352  0.249733185  0.750070203
     0.000133261  0.749756791  0.499569912
     0.999102401  0.750721687  0.750003076
     0.499551819  0.249049789  0.000211862
     0.499542849  0.249688524  0.750539533
     0.750374595  0.750047885  0.625287807
     0.749145074  0.750596143  0.875793195

  ion indices of the primitive-cell ions
   primitive index   ion index
                 1           1
                 2           2
                 3           3
                 4           4
                 5           5
                 6           6
                 7           7
                 8           8
                 9           9
                10          10
                11          11
                12          12
                13          13
                14          14
                15          15
                16          16
                17          17
                18          18
                19          19
                20          20
                21          21
                22          22
                23          23
                24          24
                25          25
                26          26
                27          27
                28          28
                29          29
                30          30
                31          31
                32          32
                33          33
                34          34
                35          35
                36          36
                37          37
                38          38
                39          39
                40          40
                41          41
                42          42
                43          43
                44          44
                45          45
                46          46
                47          47
                48          48
                49          49
                50          50
                51          51
                52          52
                53          53
                54          54
                55          55
                56          56
                57          57
                58          58
                59          59
                60          60
                61          61
                62          62
                63          63
                64          64
                65          65
                66          66
                67          67
                68          68
                69          69
                70          70
                71          71
                72          72
                73          73
                74          74
                75          75
                76          76
                77          77
                78          78
                79          79
                80          80
                81          81
                82          82
                83          83
                84          84
                85          85
                86          86
                87          87
                88          88
                89          89
                90          90
                91          91
                92          92
                93          93
                94          94
                95          95
                96          96
                97          97
                98          98
                99          99
               100         100
               101         101
               102         102
               103         103
               104         104
               105         105
               106         106
               107         107
               108         108
               109         109
               110         110
               111         111
               112         112
               113         113
               114         114
               115         115
               116         116
               117         117
               118         118
               119         119
               120         120
               121         121
               122         122
               123         123
               124         124
               125         125
               126         126
               127         127
               128         128

----------------------------------------------------------------------------------------

 
 -----------------------------------------------------------------------------
|                                                                             |
|           W    W    AA    RRRRR   N    N  II  N    N   GGGG   !!!           |
|           W    W   A  A   R    R  NN   N  II  NN   N  G    G  !!!           |
|           W    W  A    A  R    R  N N  N  II  N N  N  G       !!!           |
|           W WW W  AAAAAA  RRRRR   N  N N  II  N  N N  G  GGG   !            |
|           WW  WW  A    A  R   R   N   NN  II  N   NN  G    G                |
|           W    W  A    A  R    R  N    N  II  N    N   GGGG   !!!           |
|                                                                             |
|     The requested file  could not be found or opened for reading            |
|     k-point information. Automatic k-point generation is used as a          |
|     fallback, which may lead to unwanted results.                           |
|                                                                             |
 -----------------------------------------------------------------------------

 

Automatic generation of k-mesh.
 Grid dimensions derived from KSPACING:
 generate k-points for:    1    1    1

 Generating k-lattice:

  Cartesian coordinates                     Fractional coordinates (reciprocal lattice)
     0.101684316  0.000574071  0.000188654     1.000000000 -0.000000000 -0.000000000
     0.000000000  0.100653304 -0.000665437     0.000000000  1.000000000  0.000000000
     0.000000000  0.000000000  0.051596861     0.000000000  0.000000000  1.000000000

  Length of vectors
     0.101686111  0.100655504  0.051596861

  Shift w.r.t. Gamma in fractional coordinates (k-lattice)
     0.000000000  0.000000000  0.000000000

 
 Subroutine IBZKPT returns following result:
 ===========================================
 
 Found      1 irreducible k-points:
 
 Following reciprocal coordinates:
            Coordinates               Weight
  0.000000  0.000000  0.000000      1.000000
 
 Following cartesian coordinates:
            Coordinates               Weight
  0.000000  0.000000  0.000000      1.000000
 


--------------------------------------------------------------------------------------------------------




 Dimension of arrays:
   k-points           NKPTS =      1   k-points in BZ     NKDIM =      1   number of bands    NBANDS=    321
   number of dos      NEDOS =    301   number of ions     NIONS =    128
   non local maximal  LDIM  =      4   non local SUM 2l+1 LMDIM =      8
   total plane-waves  NPLWV = 686000
   max r-space proj   IRMAX =   2852   max aug-charges    IRDMAX=  97087
   dimension x,y,z NGX =    70 NGY =   70 NGZ =  140
   dimension x,y,z NGXF=   140 NGYF=  140 NGZF=  280
   support grid    NGXF=   280 NGYF=  280 NGZF=  560
   ions per type =             128
   NGX,Y,Z   is equivalent  to a cutoff of  11.83, 11.71, 12.01 a.u.
   NGXF,Y,Z  is equivalent  to a cutoff of  23.67, 23.43, 24.02 a.u.

 SYSTEM =  unknown system                          
 POSCAR =  Created from POSCAR                     

 Startparameter for this run:
   NWRITE =      2    write-flag & timer
   PREC   = accura    normal or accurate (medium, high low for compatibility)
   ISTART =      0    job   : 0-new  1-cont  2-samecut
   ICHARG =      2    charge: 1-file 2-atom 10-const
   ISPIN  =      1    spin polarized calculation?
   LNONCOLLINEAR =      F non collinear calculations
   LSORBIT =      F    spin-orbit coupling
   INIWAV =      1    electr: 0-lowe 1-rand  2-diag
   LASPH  =      F    aspherical Exc in radial PAW
 Electronic Relaxation 1
   ENCUT  =  450.0 eV  33.07 Ry    5.75 a.u.  17.01 17.18 33.52*2*pi/ulx,y,z
   ENINI  =  450.0     initial cutoff
   ENAUG  =  322.1 eV  augmentation charge cutoff
   NELM   =     60;   NELMIN=  2; NELMDL=  0     # of ELM steps 
   EDIFF  = 0.1E-05   stopping-criterion for ELM
   LREAL  =      T    real-space projection
   NLSPLINE    = F    spline interpolate recip. space projectors
   LCOMPAT=      F    compatible to vasp.4.4
   GGA_COMPAT  = T    GGA compatible to vasp.4.4-vasp.4.6
   LMAXPAW     = -100 max onsite density
   LMAXMIX     =    2 max onsite mixed and CHGCAR
   VOSKOWN=      0    Vosko Wilk Nusair interpolation
   ROPT   =   -0.00025
 Ionic relaxation
   EDIFFG = 0.1E-04   stopping-criterion for IOM
   NSW    =      6    number of steps for IOM
   NBLOCK =      1;   KBLOCK =      6    inner block; outer block 
   IBRION =      0    ionic relax: 0-MD 1-quasi-New 2-CG
   NFREE  =      0    steps in history (QN), initial steepest desc. (CG)
   ISIF   =      2    stress and relaxation
   IWAVPR =     11    prediction:  0-non 1-charg 2-wave 3-comb
   ISYM   =      0    0-nonsym 1-usesym 2-fastsym
   LCORR  =      T    Harris-Foulkes like correction to forces

   POTIM  = 2.0000    time-step for ionic-motion
   TEIN   =  300.0    initial temperature
   TEBEG  =  300.0;   TEEND  = 300.0 temperature during run
   SMASS  =   0.32    Nose mass-parameter (am)
   estimated Nose-frequenzy (Omega)   =  0.79E+14 period in steps = 0.40E+02 mass=   0.235E-27a.u.
   SCALEE = 1.0000    scale energy and forces
   NPACO  =    256;   APACO  = 10.0  distance and # of slots for P.C.
   PSTRESS=    0.0 pullay stress

  Mass of Ions in am
   POMASS =  28.09
  Ionic Valenz
   ZVAL   =   4.00
  Atomic Wigner-Seitz radii
   RWIGS  =  -1.00
  virtual crystal weights 
   VCA    =   1.00
   NELECT =     512.0000    total number of electrons
   NUPDOWN=      -1.0000    fix difference up-down

 DOS related values:
   EMIN   =  10.00;   EMAX   =-10.00  energy-range for DOS
   EFERMI =   0.00;   METHOD = LEGACY      
   ISMEAR =     1;   SIGMA  =   0.10  broadening in eV -4-tet -1-fermi 0-gaus

 Electronic relaxation 2 (details)
   IALGO  =     38    algorithm
   LDIAG  =      T    sub-space diagonalisation (order eigenvalues)
   LSUBROT=      F    optimize rotation matrix (better conditioning)
   TURBO    =      0    0=normal 1=particle mesh
   IRESTART =      0    0=no restart 2=restart with 2 vectors
   NREBOOT  =      0    no. of reboots
   NMIN     =      0    reboot dimension
   EREF     =   0.00    reference energy to select bands
   IMIX   =      4    mixing-type and parameters
     AMIX     =   0.40;   BMIX     =  1.00
     AMIX_MAG =   1.60;   BMIX_MAG =  1.00
     AMIN     =   0.10
     WC   =   100.;   INIMIX=   1;  MIXPRE=   1;  MAXMIX= -45

 Intra band minimization:
   WEIMIN = 0.0010     energy-eigenvalue tresh-hold
   EBREAK =  0.78E-09  absolut break condition
   DEPER  =   0.30     relativ break condition  

   TIME   =   0.40     timestep for ELM

  volume/ion in A,a.u.               =      14.79        99.83
  Fermi-wavevector in a.u.,A,eV,Ry     =   1.058603  2.000470 15.247246  1.120641
  Thomas-Fermi vector in A             =   2.193919
 
 Write flags
   LWAVE        =      F    write WAVECAR
   LDOWNSAMPLE  =      F    k-point downsampling of WAVECAR
   LCHARG       =      F    write CHGCAR
   LVTOT        =      F    write LOCPOT, total local potential
   LVHAR        =      F    write LOCPOT, Hartree potential only
   LELF         =      F    write electronic localiz. function (ELF)
   LORBIT       =      0    0 simple, 1 ext, 2 COOP (PROOUT), +10 PAW based schemes


 Dipole corrections
   LMONO  =      F    monopole corrections only (constant potential shift)
   LDIPOL =      F    correct potential (dipole corrections)
   IDIPOL =      0    1-x, 2-y, 3-z, 4-all directions 
   EPSILON=  1.0000000 bulk dielectric constant

 Exchange correlation treatment:
   GGA     =    --    GGA type
   LEXCH   =     8    internal setting for exchange type
   LIBXC   =     F    Libxc                    
   VOSKOWN =     0    Vosko Wilk Nusair interpolation
   LHFCALC =     F    Hartree Fock is set to
   LHFONE  =     F    Hartree Fock one center treatment
   AEXX    =    0.0000 exact exchange contribution

 Linear response parameters
   LEPSILON=     F    determine dielectric tensor
   LRPA    =     F    only Hartree local field effects (RPA)
   LNABLA  =     F    use nabla operator in PAW spheres
   LVEL    =     F    velocity operator in full k-point grid
   CSHIFT  =0.1000    complex shift for real part using Kramers Kronig
   OMEGAMAX=  -1.0    maximum frequency
   DEG_THRESHOLD= 0.2000000E-02 threshold for treating states as degnerate
   RTIME   =   -0.100 relaxation time in fs
  (WPLASMAI=    0.000 imaginary part of plasma frequency in eV, 0.658/RTIME)
   DFIELD  = 0.0000000 0.0000000 0.0000000 field for delta impulse in time
 
  Optional k-point grid parameters
   LKPOINTS_OPT  =     F    use optional k-point grid
   KPOINTS_OPT_MODE=     1    mode for optional k-point grid
 
 Orbital magnetization related:
   ORBITALMAG=     F  switch on orbital magnetization
   LCHIMAG   =     F  perturbation theory with respect to B field
   DQ        =  0.001000  dq finite difference perturbation B field
   LLRAUG    =     F  two centre corrections for induced B field
   LBONE     =     F  B-component reconstruction in AE one-centre
   LVGVCALC  =     T  calculate vGv susceptibility
   LVGVAPPL  =     F  apply vGv susceptibility instead of pGv for G=0

 Random number generation:
   RANDOM_GENERATOR = DEFAULT
   PCG_SEED         = not used


--------------------------------------------------------------------------------------------------------


 molecular dynamics for ions
   using nose mass (canonical ensemble)
 charge density and potential will be updated during run
 non-spin polarized calculation
 Variant of blocked Davidson
 Davidson routine will perform the subspace rotation
 perform sub-space diagonalisation
    after iterative eigenvector-optimisation
 modified Broyden-mixing scheme, WC =      100.0
 initial mixing is a Kerker type mixing with AMIX =  0.4000 and BMIX =      1.0000
 Hartree-type preconditioning will be used
 using additional bands           65
 real space projection scheme for non local part
 use partial core corrections
 calculate Harris-corrections to forces 
   (improved forces if not selfconsistent)
 use gradient corrections 
 use of overlap-Matrix (Vanderbilt PP)
 Methfessel and Paxton  Order N= 1 SIGMA  =   0.10


--------------------------------------------------------------------------------------------------------


  energy-cutoff  :      450.00
  volume of cell :     1893.63
      direct lattice vectors                 reciprocal lattice vectors
     9.834358349  0.000000000  0.000000000     0.101684316  0.000574071  0.000188654
    -0.056089752  9.935093649  0.000000000     0.000000000  0.100653304 -0.000665437
    -0.036680821  0.128131412 19.381024010     0.000000000  0.000000000  0.051596861

  length of vectors
     9.834358349  9.935251979 19.381482266     0.101686111  0.100655504  0.051596861


 
 k-points in units of 2pi/SCALE and weight: read from INCAR                         
   0.00000000  0.00000000  0.00000000       1.000
 
 k-points in reciprocal lattice and weights: read from INCAR                         
   0.00000000  0.00000000  0.00000000       1.000
 
 position of ions in fractional coordinates (direct lattice) 
   0.12521249  0.37461535  0.06282784
   0.37535794  0.37430604  0.18750604
   0.37444122  0.37605355  0.43724605
   0.37565531  0.87509057  0.18742537
   0.37510873  0.87526957  0.43750137
   0.87458111  0.37529662  0.18783123
   0.87563582  0.37543801  0.43756792
   0.87437163  0.87534694  0.18831160
   0.87528928  0.87537424  0.43738588
   0.24995172  0.99966761  0.00030392
   0.24963933  0.99982498  0.25065238
   0.25055831  0.49948658  0.00009607
   0.25026746  0.49901611  0.25049990
   0.75042154  0.99958249  0.00000145
   0.75034563  0.24930573  0.37481673
   0.74948090  0.00069652  0.24966117
   0.75038596  0.49922819  0.25006196
   0.37457327  0.12445149  0.06255091
   0.37483869  0.12571965  0.31365079
   0.37511839  0.62483740  0.06249192
   0.37533048  0.62474111  0.31269205
   0.87432170  0.12508810  0.06230576
   0.87386423  0.12493697  0.31252983
   0.87429634  0.62473130  0.06221601
   0.87622851  0.62441440  0.31264225
   0.25043551  0.24961362  0.12441253
   0.24958930  0.24885948  0.37474470
   0.25058282  0.74896795  0.12482542
   0.25020626  0.74980574  0.37514023
   0.74939984  0.49893845  0.00002613
   0.75019918  0.25090289  0.12515014
   0.49842035  0.74885655  0.24974426
   0.49906543  0.49953569  0.37503265
   0.12433282  0.37438372  0.31252463
   0.12472252  0.87498202  0.06232461
   0.12604857  0.87482406  0.31239405
   0.62540486  0.37435577  0.06256297
   0.62504306  0.37422579  0.31231465
   0.62474018  0.87426046  0.06240538
   0.62442544  0.87515805  0.31240731
   0.00088474  0.00021062  0.12572190
   0.99926009  0.00022997  0.37468330
   0.00084357  0.50062057  0.12512690
   0.99932557  0.50048800  0.37509274
   0.50015309  0.00063105  0.12477249
   0.50038660  0.99936549  0.37543786
   0.50024364  0.25019059  0.24986115
   0.49983710  0.74936811  0.99995168
   0.12436344  0.12553516  0.18771817
   0.12471674  0.12459716  0.43750314
   0.12497826  0.62536442  0.18733062
   0.12603908  0.62548655  0.43776927
   0.62534571  0.12545978  0.18755218
   0.62508910  0.12505157  0.43747450
   0.62515930  0.62398604  0.18741838
   0.62604500  0.62542508  0.43739120
   0.00013104  0.25118763  0.99987883
   0.00198901  0.25085096  0.25006955
   0.00036681  0.74937348  0.00068184
   0.99958490  0.75018034  0.24972741
   0.49955189  0.24967631  0.49938551
   0.49937657  0.50019132  0.12555211
   0.75053487  0.75075677  0.12552742
   0.75002314  0.75000097  0.37527458
   0.12448988  0.37476948  0.56233982
   0.87549280  0.37492434  0.68712083
   0.87504787  0.37486193  0.93754214
   0.87534352  0.87465135  0.68707511
   0.87686829  0.87518931  0.93760328
   0.24991892  0.99846005  0.50001083
   0.25022088  0.99949028  0.75030479
   0.25034834  0.50080973  0.50059510
   0.25040901  0.50071784  0.74952344
   0.75056800  0.99973476  0.50025694
   0.74929430  0.00044079  0.74943827
   0.74892153  0.50003800  0.49977914
   0.37562479  0.37550617  0.93756233
   0.75011056  0.49932319  0.74964701
   0.37553126  0.12611557  0.81343528
   0.37583024  0.62492563  0.56269094
   0.37530310  0.62537677  0.81348824
   0.87518866  0.12684335  0.56250639
   0.87484660  0.12419534  0.81231850
   0.87442288  0.62545302  0.56268328
   0.87590255  0.62562057  0.81252401
   0.24996551  0.25091520  0.62491777
   0.25074348  0.24925724  0.87536457
   0.24913343  0.74963163  0.62465614
   0.24972839  0.75036935  0.87542017
   0.74965450  0.24984423  0.62502677
   0.75016891  0.24929809  0.87455473
   0.37514041  0.12424010  0.56256010
   0.37575210  0.37539013  0.68745373
   0.37479489  0.87500985  0.68779665
   0.37476828  0.87403432  0.93712723
   0.50124286  0.74924381  0.74977175
   0.49954313  0.50106394  0.87546785
   0.12488401  0.12532732  0.68753529
   0.12453448  0.87468598  0.56220834
   0.12578922  0.87481284  0.81251951
   0.62485237  0.37460944  0.56284751
   0.62638656  0.37480609  0.81298328
   0.62528784  0.87444435  0.56253235
   0.62449440  0.87483677  0.81246518
   0.00098570  0.00039039  0.62493150
   0.99974068  0.00026685  0.87527950
   0.00013916  0.49924161  0.62482599
   0.99902654  0.50047574  0.87506931
   0.50039686  0.00033468  0.62495791
   0.50037964  0.99901017  0.87493932
   0.49987766  0.49968354  0.62510808
   0.50012534  0.75050988  0.49987884
   0.12604682  0.37560108  0.81218446
   0.12561406  0.12485668  0.93827723
   0.12506986  0.62491013  0.68726977
   0.12494429  0.62480072  0.93716443
   0.62440204  0.12471781  0.68732826
   0.62510907  0.12461250  0.93766018
   0.62511539  0.62468288  0.68746086
   0.62516492  0.62565610  0.93732590
   0.99942643  0.25013101  0.50021634
   0.99942935  0.24973319  0.75007020
   0.00013326  0.74975679  0.49956991
   0.99910240  0.75072169  0.75000308
   0.49955182  0.24904979  0.00021186
   0.49954285  0.24968852  0.75053953
   0.75037459  0.75004789  0.62528781
   0.74914507  0.75059614  0.87579320
 
 position of ions in cartesian coordinates  (Angst):
   1.20806782  3.72988876  1.21766790
   3.66353185  3.74279093  3.63405898
   3.64525789  3.79215217  8.47427619
   3.63837042  8.71812188  3.63249566
   3.62381214  8.75194280  8.47922459
   8.57300394  3.75267419  3.64036156
   8.57420782  3.78607801  8.48051436
   8.54287857  8.72078241  3.64967169
   8.54276521  8.75296788  8.47698615
   2.40203251  9.93183025  0.00589029
   2.38976853  9.96547124  4.85789975
   2.43606064  4.96245829  0.00186195
   2.42404162  4.98986864  4.85494461
   7.32384795  9.93094586  0.00002803
   7.35143574  2.52490158  7.26433206
   7.36146692  0.03890941  4.83868905
   7.34239040  4.99191960  4.84645683
   3.67441288  1.24445199  1.21230077
   3.66774141  1.28922501  6.07887349
   3.65170945  6.21582523  1.21115742
   3.64462307  6.24692708  6.06029211
   8.58909129  1.25074531  1.20754945
   8.57542244  1.28130535  6.05714811
   8.56082040  6.21473579  1.20580994
   8.57065390  6.24367482  6.05932697
   2.44430822  2.49587586  2.41124222
   2.42684616  2.52045879  7.26293600
   2.41773314  7.45706074  2.41924438
   2.40480114  7.49745751  7.27060180
   7.34188025  4.95700358  0.00050643
   7.35906386  2.50877935  2.42553779
   4.85048033  7.47196006  4.84029958
   4.86621296  5.01098729  7.26851675
   1.19027078  3.75958156  6.05704731
   1.17520236  8.70101408  1.20791471
   1.17907929  8.73148649  6.05451657
   6.12716311  3.72727596  1.21253449
   6.11445126  3.75798559  6.05297768
   6.09259269  8.69385559  1.20948013
   6.08027682  8.73480641  6.05477360
   0.00407741  0.01820148  2.43661919
   9.81332526  0.05029348  7.26174610
  -0.02437350  4.98974489  2.42508754
   9.78589482  5.02045629  7.26968149
   4.91407254  0.02225680  2.41821866
   4.85115564  9.97689514  7.27637014
   4.89637695  2.51768201  4.84256486
   4.83686620  7.57316756 19.38008742
   1.20910777  1.27125617  3.63817037
   1.20347250  1.29394234  8.47925891
   1.18713303  6.23705705  3.63065919
   1.18837239  6.27035942  8.48441678
   6.13595728  1.27048598  3.63495338
   6.12428921  1.29845325  8.47870379
   6.10616667  6.22337393  3.63236020
   6.10562706  6.26970032  8.47708931
  -0.04947673  2.62368855 19.37867566
  -0.00368229  2.52426954  4.84660404
  -0.03844980  7.44518311  0.01321479
   9.77903850  7.48510983  4.83997288
   4.88045011  2.54454453  9.67860256
   4.87838718  4.98553475  2.43332845
   7.33431464  7.47492278  2.43284985
   7.32016354  7.49941433  7.27320571
   1.18263026  3.79542323 10.89872151
   8.56367634  3.81295022 13.31710522
   8.55011858  3.84441702 18.17052672
   8.53418039  8.77777894 13.31621916
   8.53995579  8.81522421 18.17171163
   2.38344808  9.98386118  9.69072186
   2.37717885 10.02616715 14.54167516
   2.41556280  5.03973354  9.70204574
   2.40703371  5.07071617 14.52653185
   7.30692995  9.99655706  9.69549179
   7.34131391  0.10040588 14.52488106
   7.31878338  5.03196181  9.68623142
   3.63857620  3.85082019 18.17091797
   7.32135145  5.05687599 14.52892679
   3.65619774  1.35719660 15.76520874
   3.64035739  6.28079303 10.90552653
   3.62594855  6.31741021 15.76623503
   8.57917109  1.33227526 10.90194977
   8.56679241  1.33797587 15.74356436
   8.54366674  6.28603171 10.90537818
   8.54904459  6.31970884 15.74754733
   2.42125411  2.57293765 12.11154630
   2.41981136  2.58855576 16.96546174
   2.38510787  7.52769850 12.10647571
   2.38171929  7.56715858 16.96653940
   7.33543084  2.56231136 12.11365885
   7.33136745  2.58885781 16.94976620
   3.66166141  1.30641862 10.90299072
   3.64900888  3.81762055 13.32355727
   3.61155920  8.78143321 13.33020334
   3.60220659  8.80368822 18.16248534
   4.85987474  7.53987677 14.53134428
   4.85246870  5.09029211 16.96746337
   1.19590515  1.33323357 13.32513787
   1.15503356  8.76212365 10.89617327
   1.15818437  8.79545672 15.74746019
   6.10336462  3.79389832 10.90856104
   6.10926625  3.82790231 15.75644845
   6.07962314  8.75976453 10.90245308
   6.06263045  8.79568757 15.74640723
  -0.01325120  0.08395190 12.11181246
   9.79968717  0.11480195 16.96381306
  -0.04955294  5.04007200 12.10976760
   9.76461514  5.08439726 16.95973937
   4.89813926  0.08340178 12.11232433
   4.83278494 10.03736685 16.95721997
   4.86501945  5.04449874 12.11523474
   4.85797996  7.52043611  9.68816384
   1.18873065  3.83569823 15.74096661
   1.19391372  1.36068555 18.18477346
   1.16972112  6.29660152 13.31999186
   1.15932601  6.32753389 18.16320623
   6.10838629  1.32715151 13.32112543
   6.10616296  1.35818062 18.17281447
   6.08735378  6.29436829 13.32369539
   6.07862106  6.33605282 18.16633585
   9.79633956  2.54916845  9.69470482
   9.78722573  2.57723014 14.53712861
  -0.05906777  7.51291453  9.68217645
   9.75591252  7.55458922 14.53582763
   4.89879469  2.47436012  0.00410610
   4.87114801  2.57684656 14.54622470
   7.31444659  7.53191499 12.11871800
   7.29313555  7.56945959 16.97376894
 


--------------------------------------------------------------------------------------------------------


 use serial FFT for orbitals x direction half grid
 k-point   1 :   0.0000 0.0000 0.0000  plane waves:   20510

 maximum and minimum number of plane-waves per node :     20510    20510

 maximum number of plane-waves:     20510
 maximum index in each direction: 
   IXMAX=   17   IYMAX=   17   IZMAX=   33
   IXMIN=    0   IYMIN=  -17   IZMIN=  -33


 serial   3D FFT for wavefunctions
 parallel 3D FFT for charge:
    minimum data exchange during FFTs selected (reduces bandwidth)


 total amount of memory used by VASP MPI-rank0  1259439. kBytes
=======================================================================

   base      :      30000. kBytes
   nonlr-proj:      24543. kBytes
   fftplans  :     804536. kBytes
   grid      :     292196. kBytes
   one-center:        196. kBytes
   wavefun   :     107968. kBytes
 
     INWAV:  cpu time      0.0000: real time      0.0000
 Broyden mixing: mesh for mixing (old mesh)
   NGX = 35   NGY = 35   NGZ = 67
  (NGX  =140   NGY  =140   NGZ  =280)
  gives a total of  82075 points

 initial charge density was supplied:
 charge density of overlapping atoms calculated
 number of electron     512.0000000 magnetization 
 keeping initial charge density in first step


--------------------------------------------------------------------------------------------------------


 Maximum index for non-local projection operator         2739
 Maximum index for augmentation-charges        94079 (set IRDMAX)


--------------------------------------------------------------------------------------------------------


 First call to EWALD:  gamma=   0.143
 Maximum number of real-space cells 3x 3x 2
 Maximum number of reciprocal cells 2x 2x 4

    FEWALD:  cpu time      0.0229: real time      0.0229


--------------------------------------- Ionic step        1  -------------------------------------------




--------------------------------------- Iteration      1(   1)  ---------------------------------------


    POTLOK:  cpu time      1.4845: real time      1.4845
    SETDIJ:  cpu time      1.0664: real time      1.0663
     EDDAV:  cpu time     17.3300: real time     17.3287
       DOS:  cpu time      0.0007: real time      0.0007
    --------------------------------------------
      LOOP:  cpu time     19.8816: real time     19.8802

 eigenvalue-minimisations  :   650
 total energy-change (2. order) : 0.2797564E+04  (-0.2198476E+05)
 number of electron     512.0000000 magnetization 
 augmentation part      512.0000000 magnetization 

 Free energy of the ion-electron system (eV)
  ---------------------------------------------------
  alpha Z        PSCENC =       291.25925199
  Ewald energy   TEWEN  =    -16178.59272136
  -Hartree energ DENC   =      -444.68269566
  -exchange      EXHF   =         0.00000000
  -V(xc)+E(xc)   XCENC  =     -1107.75478046
  PAW double counting   =     11279.84635070    -9027.90627711
  entropy T*S    EENTRO =        -0.03341705
  eigenvalues    EBANDS =      4792.98486361
  atomic energy  EATOM  =     13192.44335820
  Solvation  Ediel_sol  =         0.00000000
  ---------------------------------------------------
  free energy    TOTEN  =      2797.56393287 eV

  energy without entropy =     2797.59734992  energy(sigma->0) =     2797.57507189


--------------------------------------------------------------------------------------------------------




--------------------------------------- Iteration      1(   2)  ---------------------------------------


     EDDAV:  cpu time     21.6043: real time     21.6023
       DOS:  cpu time      0.0008: real time      0.0008
    --------------------------------------------
      LOOP:  cpu time     21.6051: real time     21.6030

 eigenvalue-minimisations  :   860
 total energy-change (2. order) :-0.3086999E+04  (-0.2887360E+04)
 number of electron     512.0000000 magnetization 
 augmentation part      512.0000000 magnetization 

 Free energy of the ion-electron system (eV)
  ---------------------------------------------------
  alpha Z        PSCENC =       291.25925199
  Ewald energy   TEWEN  =    -16178.59272136
  -Hartree energ DENC   =      -444.68269566
  -exchange      EXHF   =         0.00000000
  -V(xc)+E(xc)   XCENC  =     -1107.75478046
  PAW double counting   =     11279.84635070    -9027.90627711
  entropy T*S    EENTRO =         0.00816422
  eigenvalues    EBANDS =      1705.94429216
  atomic energy  EATOM  =     13192.44335820
  Solvation  Ediel_sol  =         0.00000000
  ---------------------------------------------------
  free energy    TOTEN  =      -289.43505731 eV

  energy without entropy =     -289.44322153  energy(sigma->0) =     -289.43777872


--------------------------------------------------------------------------------------------------------




--------------------------------------- Iteration      1(   3)  ---------------------------------------


     EDDAV:  cpu time     19.9097: real time     19.9079
       DOS:  cpu time      0.0008: real time      0.0008
    --------------------------------------------
      LOOP:  cpu time     19.9105: real time     19.9087

 eigenvalue-minimisations  :   772
 total energy-change (2. order) :-0.3199417E+03  (-0.3087390E+03)
 number of electron     512.0000000 magnetization 
 augmentation part      512.0000000 magnetization 

 Free energy of the ion-electron system (eV)
  ---------------------------------------------------
  alpha Z        PSCENC =       291.25925199
  Ewald energy   TEWEN  =    -16178.59272136
  -Hartree energ DENC   =      -444.68269566
  -exchange      EXHF   =         0.00000000
  -V(xc)+E(xc)   XCENC  =     -1107.75478046
  PAW double counting   =     11279.84635070    -9027.90627711
  entropy T*S    EENTRO =         0.03783063
  eigenvalues    EBANDS =      1385.97289037
  atomic energy  EATOM  =     13192.44335820
  Solvation  Ediel_sol  =         0.00000000
  ---------------------------------------------------
  free energy    TOTEN  =      -609.37679269 eV

  energy without entropy =     -609.41462332  energy(sigma->0) =     -609.38940290


--------------------------------------------------------------------------------------------------------




--------------------------------------- Iteration      1(   4)  ---------------------------------------


     EDDAV:  cpu time     19.8723: real time     19.8705
       DOS:  cpu time      0.0009: real time      0.0008
    --------------------------------------------
      LOOP:  cpu time     19.8731: real time     19.8713

 eigenvalue-minimisations  :   772
 total energy-change (2. order) :-0.8925091E+01  (-0.8872238E+01)
 number of electron     512.0000000 magnetization 
 augmentation part      512.0000000 magnetization 

 Free energy of the ion-electron system (eV)
  ---------------------------------------------------
  alpha Z        PSCENC =       291.25925199
  Ewald energy   TEWEN  =    -16178.59272136
  -Hartree energ DENC   =      -444.68269566
  -exchange      EXHF   =         0.00000000
  -V(xc)+E(xc)   XCENC  =     -1107.75478046
  PAW double counting   =     11279.84635070    -9027.90627711
  entropy T*S    EENTRO =         0.04588186
  eigenvalues    EBANDS =      1377.03974768
  atomic energy  EATOM  =     13192.44335820
  Solvation  Ediel_sol  =         0.00000000
  ---------------------------------------------------
  free energy    TOTEN  =      -618.30188415 eV

  energy without entropy =     -618.34776601  energy(sigma->0) =     -618.31717810


--------------------------------------------------------------------------------------------------------




--------------------------------------- Iteration      1(   5)  ---------------------------------------


     EDDAV:  cpu time     20.0825: real time     20.0811
       DOS:  cpu time      0.0009: real time      0.0009
    CHARGE:  cpu time      2.2087: real time      2.2086
    MIXING:  cpu time      0.0410: real time      0.0410
    --------------------------------------------
      LOOP:  cpu time     22.3331: real time     22.3316

 eigenvalue-minimisations  :   780
 total energy-change (2. order) :-0.2187013E+00  (-0.2181581E+00)
 number of electron     511.9999999 magnetization 
 augmentation part      -32.1832283 magnetization 

 Broyden mixing:
  rms(total) = 0.57738E+01    rms(broyden)= 0.57738E+01
  rms(prec ) = 0.59317E+01
  weight for this iteration     100.00

 Free energy of the ion-electron system (eV)
  ---------------------------------------------------
  alpha Z        PSCENC =       291.25925199
  Ewald energy   TEWEN  =    -16178.59272136
  -Hartree energ DENC   =      -444.68269566
  -exchange      EXHF   =         0.00000000
  -V(xc)+E(xc)   XCENC  =     -1107.75478046
  PAW double counting   =     11279.84635070    -9027.90627711
  entropy T*S    EENTRO =         0.04540816
  eigenvalues    EBANDS =      1376.82152004
  atomic energy  EATOM  =     13192.44335820
  Solvation  Ediel_sol  =         0.00000000
  ---------------------------------------------------
  free energy    TOTEN  =      -618.52058549 eV

  energy without entropy =     -618.56599365  energy(sigma->0) =     -618.53572154


--------------------------------------------------------------------------------------------------------




--------------------------------------- Iteration      1(   6)  ---------------------------------------


    POTLOK:  cpu time      1.4555: real time      1.4559
    SETDIJ:  cpu time      1.0618: real time      1.0618
     EDDAV:  cpu time     18.9958: real time     18.9947
       DOS:  cpu time      0.0009: real time      0.0009
    CHARGE:  cpu time      2.2328: real time      2.2327
    MIXING:  cpu time      0.0419: real time      0.0419
    --------------------------------------------
      LOOP:  cpu time     23.7887: real time     23.7877

 eigenvalue-minimisations  :   732
 total energy-change (2. order) : 0.2040673E+02  (-0.1309773E+01)
 number of electron     511.9999999 magnetization 
 augmentation part      -31.5195055 magnetization 

 Broyden mixing:
  rms(total) = 0.36469E+01    rms(broyden)= 0.36469E+01
  rms(prec ) = 0.37201E+01
  weight for this iteration     100.00

 eigenvalues of (default mixing * dielectric matrix)
  average eigenvalue GAMMA=   2.6552
  2.6552

 Free energy of the ion-electron system (eV)
  ---------------------------------------------------
  alpha Z        PSCENC =       291.25925199
  Ewald energy   TEWEN  =    -16178.59272136
  -Hartree energ DENC   =      -566.31654394
  -exchange      EXHF   =         0.00000000
  -V(xc)+E(xc)   XCENC  =     -1087.26974613
  PAW double counting   =     35263.99143226   -33029.21367127
  entropy T*S    EENTRO =        -0.04386574
  eigenvalues    EBANDS =      1515.62865288
  atomic energy  EATOM  =     13192.44335820
  Solvation  Ediel_sol  =         0.00000000
  ---------------------------------------------------
  free energy    TOTEN  =      -598.11385312 eV

  energy without entropy =     -598.06998738  energy(sigma->0) =     -598.09923121


--------------------------------------------------------------------------------------------------------




--------------------------------------- Iteration      1(   7)  ---------------------------------------


    POTLOK:  cpu time      1.4952: real time      1.4951
    SETDIJ:  cpu time      1.0699: real time      1.0698
     EDDAV:  cpu time     21.3728: real time     21.3718
       DOS:  cpu time      0.0009: real time      0.0009
    CHARGE:  cpu time      2.2701: real time      2.2700
    MIXING:  cpu time      0.0424: real time      0.0424
    --------------------------------------------
      LOOP:  cpu time     26.2514: real time     26.2500

 eigenvalue-minimisations  :   756
 total energy-change (2. order) : 0.6294755E+01  (-0.2761732E+01)
 number of electron     511.9999999 magnetization 
 augmentation part      -30.6897120 magnetization 

 Broyden mixing:
  rms(total) = 0.42679E+00    rms(broyden)= 0.42679E+00
  rms(prec ) = 0.46595E+00
  weight for this iteration     100.00

 eigenvalues of (default mixing * dielectric matrix)
  average eigenvalue GAMMA=   2.1616
  2.1616  2.1616

 Free energy of the ion-electron system (eV)
  ---------------------------------------------------
  alpha Z        PSCENC =       291.25925199
  Ewald energy   TEWEN  =    -16178.59272136
  -Hartree energ DENC   =      -768.61146276
  -exchange      EXHF   =         0.00000000
  -V(xc)+E(xc)   XCENC  =     -1052.33089627
  PAW double counting   =    110866.96055657  -108657.38397305
  entropy T*S    EENTRO =        -0.04878055
  eigenvalues    EBANDS =      1714.48556880
  atomic energy  EATOM  =     13192.44335820
  Solvation  Ediel_sol  =         0.00000000
  ---------------------------------------------------
  free energy    TOTEN  =      -591.81909844 eV

  energy without entropy =     -591.77031788  energy(sigma->0) =     -591.80283825


--------------------------------------------------------------------------------------------------------




--------------------------------------- Iteration      1(   8)  ---------------------------------------


    POTLOK:  cpu time      1.4604: real time      1.4603
    SETDIJ:  cpu time      1.0714: real time      1.0713
     EDDAV:  cpu time     21.4544: real time     21.4532
       DOS:  cpu time      0.0009: real time      0.0009
    CHARGE:  cpu time      2.2110: real time      2.2109
    MIXING:  cpu time      0.0430: real time      0.0430
    --------------------------------------------
      LOOP:  cpu time     26.2411: real time     26.2397

 eigenvalue-minimisations  :   756
 total energy-change (2. order) : 0.5315413E+00  (-0.2259046E+00)
 number of electron     511.9999999 magnetization 
 augmentation part      -30.9029017 magnetization 

 Broyden mixing:
  rms(total) = 0.13052E+00    rms(broyden)= 0.13051E+00
  rms(prec ) = 0.25083E+00
  weight for this iteration     100.00

 eigenvalues of (default mixing * dielectric matrix)
  average eigenvalue GAMMA=   1.7171
  2.1997  2.1997  0.7518

 Free energy of the ion-electron system (eV)
  ---------------------------------------------------
  alpha Z        PSCENC =       291.25925199
  Ewald energy   TEWEN  =    -16178.59272136
  -Hartree energ DENC   =      -721.84731770
  -exchange      EXHF   =         0.00000000
  -V(xc)+E(xc)   XCENC  =     -1057.82674718
  PAW double counting   =    107334.52361483  -105118.91108808
  entropy T*S    EENTRO =        -0.05084780
  eigenvalues    EBANDS =      1667.71493994
  atomic energy  EATOM  =     13192.44335820
  Solvation  Ediel_sol  =         0.00000000
  ---------------------------------------------------
  free energy    TOTEN  =      -591.28755717 eV

  energy without entropy =     -591.23670937  energy(sigma->0) =     -591.27060791


--------------------------------------------------------------------------------------------------------




--------------------------------------- Iteration      1(   9)  ---------------------------------------


    POTLOK:  cpu time      1.4489: real time      1.4488
    SETDIJ:  cpu time      1.0630: real time      1.0630
     EDDAV:  cpu time     23.3071: real time     23.3055
       DOS:  cpu time      0.0009: real time      0.0009
    CHARGE:  cpu time      2.2242: real time      2.2240
    MIXING:  cpu time      0.0448: real time      0.0448
    --------------------------------------------
      LOOP:  cpu time     28.0888: real time     28.0870

 eigenvalue-minimisations  :   844
 total energy-change (2. order) :-0.2633054E-02  (-0.6462171E-01)
 number of electron     511.9999999 magnetization 
 augmentation part      -30.9152270 magnetization 

 Broyden mixing:
  rms(total) = 0.76282E-01    rms(broyden)= 0.76282E-01
  rms(prec ) = 0.20996E+00
  weight for this iteration     100.00

 eigenvalues of (default mixing * dielectric matrix)
  average eigenvalue GAMMA=   1.4474
  2.1790  2.1790  1.1187  0.3127

 Free energy of the ion-electron system (eV)
  ---------------------------------------------------
  alpha Z        PSCENC =       291.25925199
  Ewald energy   TEWEN  =    -16178.59272136
  -Hartree energ DENC   =      -722.24277772
  -exchange      EXHF   =         0.00000000
  -V(xc)+E(xc)   XCENC  =     -1057.61138231
  PAW double counting   =    108078.29314562  -105862.74109588
  entropy T*S    EENTRO =        -0.05485106
  eigenvalues    EBANDS =      1667.95688229
  atomic energy  EATOM  =     13192.44335820
  Solvation  Ediel_sol  =         0.00000000
  ---------------------------------------------------
  free energy    TOTEN  =      -591.29019023 eV

  energy without entropy =     -591.23533917  energy(sigma->0) =     -591.27190654


--------------------------------------------------------------------------------------------------------




--------------------------------------- Iteration      1(  10)  ---------------------------------------


    POTLOK:  cpu time      1.5043: real time      1.5044
    SETDIJ:  cpu time      1.0717: real time      1.0716
     EDDAV:  cpu time     24.6772: real time     24.6753
       DOS:  cpu time      0.0009: real time      0.0009
    CHARGE:  cpu time      2.2795: real time      2.2793
    MIXING:  cpu time      0.0459: real time      0.0459
    --------------------------------------------
      LOOP:  cpu time     29.5794: real time     29.5774

 eigenvalue-minimisations  :   908
 total energy-change (2. order) : 0.3658189E-01  (-0.1416053E-01)
 number of electron     511.9999999 magnetization 
 augmentation part      -30.9166790 magnetization 

 Broyden mixing:
  rms(total) = 0.32088E-01    rms(broyden)= 0.32088E-01
  rms(prec ) = 0.43624E-01
  weight for this iteration     100.00

 eigenvalues of (default mixing * dielectric matrix)
  average eigenvalue GAMMA=   1.3745
  2.3260  1.7367  1.7367  0.8365  0.2365

 Free energy of the ion-electron system (eV)
  ---------------------------------------------------
  alpha Z        PSCENC =       291.25925199
  Ewald energy   TEWEN  =    -16178.59272136
  -Hartree energ DENC   =      -724.57493093
  -exchange      EXHF   =         0.00000000
  -V(xc)+E(xc)   XCENC  =     -1057.07381910
  PAW double counting   =    109229.23796233  -107014.00092401
  entropy T*S    EENTRO =        -0.06596449
  eigenvalues    EBANDS =      1670.11417903
  atomic energy  EATOM  =     13192.44335820
  Solvation  Ediel_sol  =         0.00000000
  ---------------------------------------------------
  free energy    TOTEN  =      -591.25360834 eV

  energy without entropy =     -591.18764385  energy(sigma->0) =     -591.23162018


--------------------------------------------------------------------------------------------------------




--------------------------------------- Iteration      1(  11)  ---------------------------------------


    POTLOK:  cpu time      1.5062: real time      1.5061
    SETDIJ:  cpu time      1.0746: real time      1.0746
     EDDAV:  cpu time     19.9686: real time     19.9671
       DOS:  cpu time      0.0009: real time      0.0009
    CHARGE:  cpu time      2.3315: real time      2.3314
    MIXING:  cpu time      0.0471: real time      0.0471
    --------------------------------------------
      LOOP:  cpu time     24.9289: real time     24.9270

 eigenvalue-minimisations  :   780
 total energy-change (2. order) :-0.8417195E-03  (-0.1399624E-02)
 number of electron     511.9999999 magnetization 
 augmentation part      -30.9242044 magnetization 

 Broyden mixing:
  rms(total) = 0.41695E-01    rms(broyden)= 0.41695E-01
  rms(prec ) = 0.42585E-01
  weight for this iteration     100.00

 eigenvalues of (default mixing * dielectric matrix)
  average eigenvalue GAMMA=   1.1885
  2.3457  1.7282  1.7282  0.8565  0.2309  0.2413

 Free energy of the ion-electron system (eV)
  ---------------------------------------------------
  alpha Z        PSCENC =       291.25925199
  Ewald energy   TEWEN  =    -16178.59272136
  -Hartree energ DENC   =      -725.53657603
  -exchange      EXHF   =         0.00000000
  -V(xc)+E(xc)   XCENC  =     -1056.88342998
  PAW double counting   =    109147.92717611  -106932.82490522
  entropy T*S    EENTRO =        -0.06591228
  eigenvalues    EBANDS =      1671.01930851
  atomic energy  EATOM  =     13192.44335820
  Solvation  Ediel_sol  =         0.00000000
  ---------------------------------------------------
  free energy    TOTEN  =      -591.25445006 eV

  energy without entropy =     -591.18853778  energy(sigma->0) =     -591.23247930


--------------------------------------------------------------------------------------------------------




--------------------------------------- Iteration      1(  12)  ---------------------------------------


    POTLOK:  cpu time      1.5064: real time      1.5063
    SETDIJ:  cpu time      1.0756: real time      1.0756
     EDDAV:  cpu time     19.3239: real time     19.3223
       DOS:  cpu time      0.0009: real time      0.0009
    CHARGE:  cpu time      2.3109: real time      2.3107
    MIXING:  cpu time      0.0486: real time      0.0486
    --------------------------------------------
      LOOP:  cpu time     24.2663: real time     24.2643

 eigenvalue-minimisations  :   748
 total energy-change (2. order) :-0.1994822E-03  (-0.1981388E-03)
 number of electron     511.9999999 magnetization 
 augmentation part      -30.9273273 magnetization 

 Broyden mixing:
  rms(total) = 0.44479E-01    rms(broyden)= 0.44479E-01
  rms(prec ) = 0.45121E-01
  weight for this iteration     100.00

 eigenvalues of (default mixing * dielectric matrix)
  average eigenvalue GAMMA=   1.0540
  2.3401  1.8337  1.5724  0.7849  0.3630  0.2803  0.2036

 Free energy of the ion-electron system (eV)
  ---------------------------------------------------
  alpha Z        PSCENC =       291.25925199
  Ewald energy   TEWEN  =    -16178.59272136
  -Hartree energ DENC   =      -725.54043834
  -exchange      EXHF   =         0.00000000
  -V(xc)+E(xc)   XCENC  =     -1056.88338696
  PAW double counting   =    109098.63219782  -106883.53054001
  entropy T*S    EENTRO =        -0.06594749
  eigenvalues    EBANDS =      1671.02357661
  atomic energy  EATOM  =     13192.44335820
  Solvation  Ediel_sol  =         0.00000000
  ---------------------------------------------------
  free energy    TOTEN  =      -591.25464954 eV

  energy without entropy =     -591.18870206  energy(sigma->0) =     -591.23266705


--------------------------------------------------------------------------------------------------------




--------------------------------------- Iteration      1(  13)  ---------------------------------------


    POTLOK:  cpu time      1.5058: real time      1.5057
    SETDIJ:  cpu time      1.0721: real time      1.0720
     EDDAV:  cpu time     21.8946: real time     21.8926
       DOS:  cpu time      0.0009: real time      0.0009
    CHARGE:  cpu time      2.3075: real time      2.3073
    MIXING:  cpu time      0.0499: real time      0.0499
    --------------------------------------------
      LOOP:  cpu time     26.8309: real time     26.8285

 eigenvalue-minimisations  :   876
 total energy-change (2. order) : 0.2085904E-04  (-0.1317018E-04)
 number of electron     511.9999999 magnetization 
 augmentation part      -30.9275543 magnetization 

 Broyden mixing:
  rms(total) = 0.48223E-01    rms(broyden)= 0.48223E-01
  rms(prec ) = 0.49031E-01
  weight for this iteration     100.00

 eigenvalues of (default mixing * dielectric matrix)
  average eigenvalue GAMMA=   1.2361
  2.3976  1.9403  1.9403  0.9258  0.9258  0.9007  0.6332  0.2254

 Free energy of the ion-electron system (eV)
  ---------------------------------------------------
  alpha Z        PSCENC =       291.25925199
  Ewald energy   TEWEN  =    -16178.59272136
  -Hartree energ DENC   =      -725.47421630
  -exchange      EXHF   =         0.00000000
  -V(xc)+E(xc)   XCENC  =     -1056.88847447
  PAW double counting   =    109176.55616438  -106961.44508845
  entropy T*S    EENTRO =        -0.06601057
  eigenvalues    EBANDS =      1670.95310789
  atomic energy  EATOM  =     13192.44335820
  Solvation  Ediel_sol  =         0.00000000
  ---------------------------------------------------
  free energy    TOTEN  =      -591.25462869 eV

  energy without entropy =     -591.18861812  energy(sigma->0) =     -591.23262516


--------------------------------------------------------------------------------------------------------




--------------------------------------- Iteration      1(  14)  ---------------------------------------


    POTLOK:  cpu time      1.5028: real time      1.5026
    SETDIJ:  cpu time      1.0693: real time      1.0692
     EDDAV:  cpu time     22.5070: real time     22.5057
       DOS:  cpu time      0.0009: real time      0.0009
    CHARGE:  cpu time      2.3151: real time      2.3150
    MIXING:  cpu time      0.0512: real time      0.0512
    --------------------------------------------
      LOOP:  cpu time     27.4462: real time     27.4446

 eigenvalue-minimisations  :   908
 total energy-change (2. order) :-0.5843803E-03  (-0.9424175E-04)
 number of electron     511.9999999 magnetization 
 augmentation part      -30.9273818 magnetization 

 Broyden mixing:
  rms(total) = 0.47495E-01    rms(broyden)= 0.47495E-01
  rms(prec ) = 0.52862E-01
  weight for this iteration     100.00

 eigenvalues of (default mixing * dielectric matrix)
  average eigenvalue GAMMA=   1.3192
  2.4804  2.2525  2.2525  1.2748  1.2748  0.9471  0.9471  0.2249  0.2183

 Free energy of the ion-electron system (eV)
  ---------------------------------------------------
  alpha Z        PSCENC =       291.25925199
  Ewald energy   TEWEN  =    -16178.59272136
  -Hartree energ DENC   =      -725.65681761
  -exchange      EXHF   =         0.00000000
  -V(xc)+E(xc)   XCENC  =     -1056.86278211
  PAW double counting   =    109138.63480159  -106923.54759173
  entropy T*S    EENTRO =        -0.06580845
  eigenvalues    EBANDS =      1671.13309642
  atomic energy  EATOM  =     13192.44335820
  Solvation  Ediel_sol  =         0.00000000
  ---------------------------------------------------
  free energy    TOTEN  =      -591.25521307 eV

  energy without entropy =     -591.18940462  energy(sigma->0) =     -591.23327692


--------------------------------------------------------------------------------------------------------




--------------------------------------- Iteration      1(  15)  ---------------------------------------


    POTLOK:  cpu time      1.5033: real time      1.5032
    SETDIJ:  cpu time      1.0733: real time      1.0732
     EDDAV:  cpu time     20.0925: real time     20.0911
       DOS:  cpu time      0.0009: real time      0.0009
    CHARGE:  cpu time      2.3211: real time      2.3209
    MIXING:  cpu time      0.0524: real time      0.0524
    --------------------------------------------
      LOOP:  cpu time     25.0434: real time     25.0416

 eigenvalue-minimisations  :   788
 total energy-change (2. order) :-0.3030016E-02  (-0.6854901E-03)
 number of electron     511.9999999 magnetization 
 augmentation part      -30.9253156 magnetization 

 Broyden mixing:
  rms(total) = 0.11606E+00    rms(broyden)= 0.11606E+00
  rms(prec ) = 0.11670E+00
  weight for this iteration     100.00

 eigenvalues of (default mixing * dielectric matrix)
  average eigenvalue GAMMA=   1.2463
  2.6242  2.2188  2.2188  1.2300  1.2300  0.9667  0.7651  0.7651  0.2246  0.2198

 Free energy of the ion-electron system (eV)
  ---------------------------------------------------
  alpha Z        PSCENC =       291.25925199
  Ewald energy   TEWEN  =    -16178.59272136
  -Hartree energ DENC   =      -726.36089311
  -exchange      EXHF   =         0.00000000
  -V(xc)+E(xc)   XCENC  =     -1056.74843417
  PAW double counting   =    107575.21630361  -105360.20393768
  entropy T*S    EENTRO =        -0.06634215
  eigenvalues    EBANDS =      1671.79517159
  atomic energy  EATOM  =     13192.44335820
  Solvation  Ediel_sol  =         0.00000000
  ---------------------------------------------------
  free energy    TOTEN  =      -591.25824308 eV

  energy without entropy =     -591.19190094  energy(sigma->0) =     -591.23612903


--------------------------------------------------------------------------------------------------------




--------------------------------------- Iteration      1(  16)  ---------------------------------------


    POTLOK:  cpu time      1.5010: real time      1.5009
    SETDIJ:  cpu time      1.0677: real time      1.0676
     EDDAV:  cpu time     21.1271: real time     21.1256
       DOS:  cpu time      0.0009: real time      0.0009
    CHARGE:  cpu time      2.3118: real time      2.3117
    MIXING:  cpu time      0.0543: real time      0.0543
    --------------------------------------------
      LOOP:  cpu time     26.0627: real time     26.0608

 eigenvalue-minimisations  :   740
 total energy-change (2. order) :-0.7066251E-03  (-0.1364405E-03)
 number of electron     511.9999999 magnetization 
 augmentation part      -30.9259299 magnetization 

 Broyden mixing:
  rms(total) = 0.14042E+00    rms(broyden)= 0.14042E+00
  rms(prec ) = 0.14110E+00
  weight for this iteration     100.00

 eigenvalues of (default mixing * dielectric matrix)
  average eigenvalue GAMMA=   1.1679
  2.7028  2.1638  2.1638  1.0784  1.0784  0.9720  0.9372  0.9372  0.3693  0.2248
  0.2194

 Free energy of the ion-electron system (eV)
  ---------------------------------------------------
  alpha Z        PSCENC =       291.25925199
  Ewald energy   TEWEN  =    -16178.59272136
  -Hartree energ DENC   =      -726.31460184
  -exchange      EXHF   =         0.00000000
  -V(xc)+E(xc)   XCENC  =     -1056.75730099
  PAW double counting   =    107252.61141425  -105037.57903753
  entropy T*S    EENTRO =        -0.06659756
  eigenvalues    EBANDS =      1671.73728513
  atomic energy  EATOM  =     13192.44335820
  Solvation  Ediel_sol  =         0.00000000
  ---------------------------------------------------
  free energy    TOTEN  =      -591.25894971 eV

  energy without entropy =     -591.19235214  energy(sigma->0) =     -591.23675052


--------------------------------------------------------------------------------------------------------




--------------------------------------- Iteration      1(  17)  ---------------------------------------


    POTLOK:  cpu time      1.5016: real time      1.5015
    SETDIJ:  cpu time      1.0700: real time      1.0700
     EDDAV:  cpu time     21.9213: real time     21.9198
       DOS:  cpu time      0.0009: real time      0.0009
    CHARGE:  cpu time      2.3327: real time      2.3326
    MIXING:  cpu time      0.0561: real time      0.0561
    --------------------------------------------
      LOOP:  cpu time     26.8827: real time     26.8808

 eigenvalue-minimisations  :   820
 total energy-change (2. order) : 0.7476612E-05  (-0.1006988E-04)
 number of electron     511.9999999 magnetization 
 augmentation part      -30.9264556 magnetization 

 Broyden mixing:
  rms(total) = 0.14820E+00    rms(broyden)= 0.14820E+00
  rms(prec ) = 0.14889E+00
  weight for this iteration     100.00

 eigenvalues of (default mixing * dielectric matrix)
  average eigenvalue GAMMA=   1.2717
  2.6487  2.4252  2.4252  1.8416  0.9506  0.9506  1.2121  1.0268  0.6678  0.6678
  0.2247  0.2197

 Free energy of the ion-electron system (eV)
  ---------------------------------------------------
  alpha Z        PSCENC =       291.25925199
  Ewald energy   TEWEN  =    -16178.59272136
[...]
   0.474E+01 0.344E+01 -.168E+00   -.406E+01 -.316E+01 0.272E+00   -.237E+01 -.115E+01 -.503E+00   0.106E-02 0.739E-05 0.592E-02
   -.250E+01 0.112E+01 0.296E+01   0.173E+01 -.971E+00 -.298E+01   0.150E+01 -.433E+00 -.505E+00   -.106E-02 0.397E-03 -.338E-02
   0.202E+01 0.113E+01 -.180E+01   -.180E+01 -.103E+01 0.147E+01   -.893E+00 -.639E+00 0.921E+00   0.592E-03 0.238E-03 0.496E-02
   0.155E+01 0.261E+01 0.108E+01   -.176E+01 -.243E+01 -.121E+01   -.164E+00 -.671E+00 -.487E+00   -.415E-03 -.729E-03 -.290E-02
   0.671E+01 -.380E+01 -.212E+00   -.610E+01 0.340E+01 -.432E-01   -.261E+01 0.187E+01 0.283E+00   0.545E-03 -.418E-03 0.516E-02
   0.523E+00 0.146E+01 -.309E+01   -.325E+00 -.143E+01 0.286E+01   -.171E-01 -.307E+00 0.158E+01   0.684E-03 -.263E-03 -.261E-02
   0.118E+01 0.282E+01 -.245E+00   -.922E+00 -.265E+01 0.184E+00   -.748E+00 -.120E+01 -.260E+00   0.797E-04 0.311E-03 0.649E-02
   -.501E+01 0.493E-01 -.277E+01   0.452E+01 -.185E-01 0.257E+01   0.177E+01 0.418E+00 0.901E+00   -.121E-03 -.482E-04 0.441E-02
   0.622E+00 0.175E+01 0.209E+00   -.773E+00 -.146E+01 -.414E+00   -.456E+00 -.651E+00 0.297E+00   0.124E-03 0.414E-04 0.330E-02
   0.618E+00 -.100E+01 0.280E+01   -.502E+00 0.738E+00 -.245E+01   -.253E+00 0.819E-01 -.755E+00   0.342E-03 0.150E-03 -.409E-02
   -.270E+01 0.231E+01 0.254E+01   0.250E+01 -.221E+01 -.229E+01   0.118E+01 -.367E+00 -.109E+01   -.681E-04 -.351E-03 0.211E-02
   -.307E+01 0.645E+00 0.254E+01   0.287E+01 -.543E+00 -.225E+01   0.121E+01 0.535E+00 -.121E+01   0.464E-03 -.815E-03 -.239E-02
   -.659E+00 -.181E+01 -.111E+01   0.630E+00 0.157E+01 0.101E+01   0.304E+00 0.977E+00 0.742E-01   -.504E-03 -.196E-03 0.483E-02
   0.998E+00 -.225E+01 -.222E+01   -.600E+00 0.211E+01 0.225E+01   0.303E+00 0.581E+00 0.157E+00   -.621E-03 0.100E-03 0.639E-02
   -.354E+01 -.208E+01 -.451E+01   0.291E+01 0.174E+01 0.391E+01   0.223E+01 0.117E+01 0.188E+01   -.177E-02 -.213E-03 -.545E-03
   -.831E+00 0.313E+01 -.390E+01   0.645E+00 -.266E+01 0.361E+01   0.418E+00 -.177E+01 0.117E+01   -.464E-04 0.999E-03 0.612E-02
   0.404E+01 -.319E+00 -.575E+00   -.355E+01 -.804E-01 0.468E+00   -.197E+01 0.142E+00 0.289E+00   -.286E-04 -.118E-03 -.923E-04
   -.127E+01 -.164E+01 -.399E+01   0.123E+01 0.152E+01 0.340E+01   -.200E+00 0.108E+01 0.156E+01   0.283E-03 -.823E-03 0.550E-02
   -.398E+01 -.511E+00 0.362E+00   0.378E+01 0.423E+00 -.176E+00   0.722E+00 0.166E+00 -.196E+00   0.732E-03 0.285E-03 0.730E-04
   0.957E+00 -.174E+01 0.396E+01   -.893E+00 0.135E+01 -.352E+01   -.326E+00 0.133E+01 -.142E+01   -.375E-03 -.853E-03 0.590E-02
   0.137E+00 -.267E+01 -.226E+01   -.321E+00 0.254E+01 0.206E+01   0.505E+00 0.662E+00 0.108E+01   -.141E-03 -.186E-05 -.340E-02
   0.313E+01 -.191E+01 -.979E+00   -.308E+01 0.206E+01 0.105E+01   -.101E+01 -.104E+00 -.482E+00   -.879E-04 0.768E-03 0.589E-02
   -.388E+01 0.140E+01 0.486E+01   0.345E+01 -.133E+01 -.453E+01   0.195E+01 -.852E+00 -.123E+01   -.113E-02 -.378E-03 -.254E-02
   -.240E+01 -.853E+00 0.423E+01   0.225E+01 0.902E+00 -.374E+01   0.102E+01 -.298E-01 -.142E+01   0.670E-04 -.285E-03 0.565E-02
   -.224E+01 -.427E+01 0.205E+01   0.222E+01 0.409E+01 -.194E+01   0.226E+00 0.114E+01 -.387E+00   0.108E-02 0.488E-03 -.295E-02
   -.305E+01 -.391E-02 -.186E+01   0.303E+01 -.123E+00 0.140E+01   0.624E+00 0.227E+00 0.103E+01   0.917E-03 0.146E-03 0.450E-02
   -.178E+01 0.402E+01 0.239E+01   0.168E+01 -.375E+01 -.190E+01   0.354E+00 -.170E+01 -.995E+00   0.574E-03 0.561E-04 0.595E-02
   0.101E+01 -.372E+01 -.742E+00   -.921E+00 0.317E+01 0.625E+00   -.586E+00 0.199E+01 0.249E+00   -.466E-03 -.940E-03 -.361E-04
   0.336E+01 0.346E+01 0.136E+01   -.306E+01 -.299E+01 -.133E+01   -.629E+00 -.174E+01 -.129E+00   -.996E-03 0.875E-03 -.529E-02
   0.233E+01 -.368E+01 -.956E+00   -.199E+01 0.321E+01 0.101E+01   0.350E+00 0.181E+01 -.259E+00   -.106E-02 -.213E-03 0.473E-02
   0.123E+00 0.572E+00 0.198E+01   -.245E+00 -.348E+00 -.180E+01   0.298E+00 -.109E-01 -.190E+00   -.104E-02 -.271E-03 -.443E-02
   0.358E+01 -.593E+01 0.148E+01   -.303E+01 0.520E+01 -.127E+01   -.160E+01 0.201E+01 -.442E+00   0.407E-03 0.391E-05 0.430E-02
   -.301E+01 -.353E+01 0.180E+01   0.271E+01 0.328E+01 -.165E+01   0.366E+00 0.829E+00 -.633E+00   0.486E-03 0.387E-03 -.475E-02
   0.190E+01 0.126E+01 0.219E-01   -.141E+01 -.134E+01 -.133E+00   -.198E+01 -.213E+00 0.340E+00   0.122E-02 -.142E-03 0.302E-02
   -.759E-01 0.108E-01 -.375E+01   0.280E+00 -.321E-01 0.353E+01   -.476E+00 0.799E-01 0.100E+01   0.955E-03 -.761E-03 -.384E-02
   0.212E+01 0.832E-01 0.484E+00   -.210E+01 -.342E+00 -.743E+00   -.546E+00 0.580E+00 -.151E+00   -.436E-03 -.631E-03 0.458E-02
   -.250E+01 0.110E+01 -.193E+01   0.234E+01 -.912E+00 0.194E+01   0.994E+00 -.112E+01 0.484E+00   -.170E-03 0.473E-03 0.258E-02
   0.175E+01 -.716E+00 -.192E+01   -.190E+01 0.823E+00 0.180E+01   -.577E+00 0.198E+00 0.667E+00   -.531E-03 0.547E-03 0.561E-02
   0.600E+01 0.497E+01 0.231E+01   -.546E+01 -.467E+01 -.214E+01   -.275E+01 -.200E+01 -.109E+01   0.115E-02 0.143E-03 0.219E-02
   -.305E+01 -.733E+00 -.159E+00   0.306E+01 0.724E+00 -.414E-01   0.519E+00 0.104E+00 0.453E+00   0.938E-03 0.637E-03 -.632E-02
   -.335E+01 -.186E+01 0.121E+01   0.290E+01 0.168E+01 -.107E+01   0.140E+01 0.494E+00 -.703E+00   -.207E-04 -.223E-03 0.235E-02
   -.642E+01 0.563E+00 0.923E+00   0.580E+01 -.616E+00 -.674E+00   0.248E+01 0.127E+00 -.915E+00   -.903E-03 -.451E-03 0.569E-02
   -.178E+01 0.376E+00 0.789E+00   0.156E+01 -.299E+00 -.784E+00   0.204E+00 -.303E+00 -.372E+00   0.115E-02 -.220E-03 -.239E-02
 -----------------------------------------------------------------------------------------------
   -.246E-01 -.707E-01 -.228E-01   0.127E-13 -.107E-12 -.211E-12   0.487E-01 0.941E-01 0.443E-01   0.293E-03 0.209E-04 -.147E-03
 
 
 POSITION                                       TOTAL-FORCE (eV/Angst)
 -----------------------------------------------------------------------------------
      1.18025      3.79169      1.19636        -0.690444     -0.944272      0.926676
      3.63910      3.69596      3.66285         0.632075      0.589297     -0.944755
      3.64202      3.76369      8.46818         0.164501      0.565141      0.721837
      3.65765      8.74618      3.67361        -0.768261     -0.442580     -0.567001
      3.58146      8.71717      8.46143         0.465005      1.258538      0.753955
      8.58196      3.71447      3.59129        -0.175382      1.216833      0.717872
      8.57311      3.80296      8.45397        -0.263283     -0.318212     -0.200510
      8.46698      8.73496      3.64348         2.367290      0.087626     -0.653079
      8.55677      8.71959      8.52868        -0.956437     -0.157005     -0.498197
      2.43959      9.89709      0.00360        -0.742440      0.803630     -0.883121
      2.48450      0.07291      4.84077        -0.399544     -0.261327     -0.300039
      2.44396      4.93826      0.02337         0.345101      1.014993     -0.224864
      2.43409      4.95155      4.83304        -0.233737      0.811985      0.225477
      7.29032      9.91337      0.03037         1.338764     -0.011900     -1.043226
      7.31894      2.49315      7.26521         0.857643      1.249016     -0.107876
      7.38654      0.04732      4.81929        -0.655991      1.364494      0.938316
      7.29609      4.96922      4.85196         1.228197     -0.163552     -0.743728
      3.65738      1.21887      1.18994         0.054510      1.168395      0.758750
      3.66313      1.30758      6.05644        -0.013173      0.463181      0.385982
      3.63817      6.22853      1.23226         0.168584     -0.370336     -0.187131
      3.64592      6.24273      6.04612         0.147197     -0.130315      0.090200
      8.57608      1.26363      1.20250         0.338951     -0.729209      0.308136
      8.59757      1.32358      6.06922         0.677192     -0.617769     -0.472344
      8.59167      6.21025      1.21563        -1.121408      1.049207     -0.134543
      8.57839      6.19767      6.06343        -1.382017      1.114129     -1.292468
      2.41945      2.51315      2.40904         0.025821     -0.209242     -0.999202
      2.43481      2.52816      7.30250        -0.260937     -1.336186      0.122363
      2.43345      7.48915      2.40563        -0.315989      0.582311      0.681871
      2.42810      7.51900      7.26139        -0.720211     -1.328311     -1.046528
      7.33927      5.09213     19.34946        -0.105427      0.488046     -0.198165
      7.35451      2.46654      2.43565        -0.159037      0.712042     -1.032314
      4.88794      7.51356      4.84408         0.182291     -0.351733      0.608238
      4.89297      4.99166      7.28430        -0.627406      0.530035     -0.268158
      1.23576      3.74117      6.10485        -0.845559      0.628208     -0.234962
      1.18741      8.73398      1.18542        -1.041812     -0.986728      0.559300
      1.21254      8.74709      6.03748        -0.886331      0.346006      0.285135
      6.14247      3.75612      1.20009         0.260348     -0.996225     -0.241398
      6.09160      3.75797      6.07505         0.232545     -0.240613      0.285873
      6.10745      8.70741      1.23667        -0.795192     -0.931885      0.314961
      6.12920      8.74659      6.07032        -0.918912      0.842615      0.291942
      0.04002      0.04648      2.43633        -1.004855     -0.601539      0.032676
      9.76163      9.96254      7.30521         0.166108      0.019919     -0.970941
     -0.01997      5.04620      2.43997        -0.030607     -1.038675      0.278580
     -0.03029      5.06143      7.23081         1.227020     -1.352233      1.072359
      4.84338      9.94761      2.40853         0.304853      0.205018     -0.032893
      4.84910      0.05816      7.27220         1.127946     -0.434364     -0.155501
      4.91080      2.51949      4.84993         0.216884     -0.309623     -0.029139
      4.82621      7.48972      0.00800         1.386536     -0.703779      0.284898
      1.21780      1.30581      3.67052         0.641273     -0.901944     -0.645354
      1.16028      1.30680      8.53400         0.617428     -0.176963     -0.324535
      1.20378      6.24830      3.64978         0.241817      0.728777      0.753706
      1.18179      6.29550      8.48472         0.858320     -0.904105     -0.820390
      6.11374      1.28553      3.61263        -0.436007     -0.831893      0.709892
      6.13455      1.30319      8.47863        -1.841115     -0.001317     -0.000589
      6.08971      6.23858      3.64828        -0.766023     -0.881200     -0.193113
      6.12193      6.24524      8.45518        -0.481438      0.345726      1.030204
      0.00956      2.45228      0.00332         0.247447      0.342878      0.324943
      0.02988      2.54049      4.81052        -1.046145      0.725538      1.321202
     -0.07364      7.57041     19.33214         0.719828     -0.087244      0.875318
      9.75630      7.50989      4.85453         0.227207      0.020394     -0.340873
      4.85723      2.53117      9.69623         0.969076      0.329407     -0.237173
      4.88317      4.94144      2.38076        -0.346768      0.386670      1.243331
      7.31497      7.46915      2.47012         0.375351     -0.979114     -1.534518
      7.32149      7.47582      7.24086         1.178568      0.226876      0.234502
      1.18972      3.83085     10.88049         0.004351     -0.717743      0.950497
      8.56800      3.80723     13.29976        -0.673099      0.988482     -0.269087
      8.57833      3.81433     18.18875        -0.908405     -0.742898     -0.147650
      8.54444      8.81336     13.35007        -0.391765     -1.413956      0.297167
      8.53348      8.79255     18.16196        -0.664152      1.195168      0.228501
      2.38663      9.98043      9.69383         0.148530      0.348718      0.426683
      2.38201      9.99838     14.49874         0.030451      0.360883      0.246128
      2.39758      5.01003      9.68236         1.309448      1.157398     -0.442729
      2.43150      5.06346     14.48294        -0.492057     -0.406881      0.865110
      7.22563      9.97009      9.63986         1.637249     -0.082295      1.008823
      7.25988     10.02889     14.50908         0.887885     -0.179483      1.175019
      7.34908      5.03093      9.71481        -0.091259     -0.346876     -0.957910
      3.62677      3.87968     18.18694        -0.302031     -1.090696      0.333727
      7.30577      5.04092     14.52473         1.068164      0.105362     -0.633419
      3.65410      1.32659     15.73889        -0.675041     -0.226470      0.578389
      3.64495      6.31702     10.91325        -0.534994     -0.278889     -0.914892
      3.61559      6.30710     15.73621        -0.818973     -0.381180      0.819261
      8.54449      1.34442     10.87579         0.422788     -2.145566     -1.041041
      8.57373      1.34975     15.75226        -0.297964     -0.331693     -0.752646
      8.56571      6.27424     10.86626        -0.219376      0.851769      1.554170
      8.52340      6.28170     15.75576         0.273328      1.190274     -1.069529
      2.42825      2.59517     12.11797        -1.686053     -0.874755     -0.392542
      2.42696      2.60210     16.98438         0.731303     -0.285506     -0.519794
      2.40221      7.56317     12.09811        -0.676188     -0.548580      0.592764
      2.42334      7.56293     17.01576        -0.374429     -0.494443     -0.616644
      7.39813      2.50801     12.11681        -2.001848      1.466307      0.032698
      7.32394      2.60439     16.89913         0.181555     -0.286455      1.345264
      3.65005      1.34887     10.94098        -0.493235     -1.032306     -0.314593
      3.61964      3.78652     13.30184         1.275129      0.448800      0.706369
      3.65243      8.76235     13.33714        -0.607698     -0.352965      0.095642
      3.61914      8.84443     18.17916        -0.136653     -0.181155     -0.403199
      4.82793      7.54034     14.58419         0.981922     -0.265394     -0.845114
      4.81639      5.06386     16.98355         1.011681      0.635594     -0.930811
      1.16704      1.30823     13.32920         0.275488      0.739449     -0.026875
      1.10573      8.75574     10.90351         0.700023      0.433967      0.193510
      1.17485      8.78713     15.77081         1.598188      0.827649      1.271240
      6.09332      3.82424     10.89272         0.232960     -1.297744      0.889655
      6.10959      3.86851     15.75595        -1.481173     -0.257428      0.182078
      6.06318      8.72503     10.88928        -0.244134      0.953091      0.969174
      6.06287      8.78273     15.75365         0.515646      0.078379     -0.010023
      9.73557     10.00033     12.11351        -0.262426      0.938231     -0.975512
     -0.08237     10.03224     16.92047         0.321002      0.538013      0.879969
     -0.01233      5.05124     12.11030        -0.961918      0.047558     -0.401568
      9.72235      5.08317     16.98012         1.515755     -0.780330     -0.911391
      4.81204     10.00589     12.12445         0.872326      0.018546     -0.916937
      4.84380     10.01168     16.95228         0.208061      0.963577     -0.274206
      4.84602      5.05447     12.10276         0.607765      0.099461      0.578287
      4.85912      7.55424      9.65192         0.250368     -1.432203     -0.499194
      1.19900      3.79019     15.74766        -0.500544      1.437298      0.131415
      1.21338      1.37360     18.18130        -0.328879     -1.275128     -0.098434
      1.13271      6.27845     13.34953         0.695366      1.343726     -0.203268
      1.16629      6.28124     18.17548         0.174031      0.212480     -0.018091
      6.12029      1.29982     13.32429        -1.044629      1.273922     -0.227883
      6.10849      1.34397     18.18164         0.060612      0.578334     -0.489099
      6.10479      6.30432     13.34849        -1.483703     -0.290665      0.231838
      6.05011      6.34628     18.16108        -0.271280      0.057803      0.777319
     -0.02962      2.57856      9.71497        -0.525713      0.321183     -0.404657
      9.76306      2.61758     14.50856         0.839088     -0.932301      0.501248
     -0.01314      7.48529      9.66889        -0.731204      0.305122      0.554851
      0.01482      7.60917     14.58621        -2.219140     -1.700441     -0.920594
      4.85224      2.60780     19.36727         0.526832      0.096049      0.246631
      4.86274      2.57775     14.55686         0.950294      0.310547     -0.563253
      7.27690      7.53126     12.13963         1.869926      0.073148     -0.660097
      7.31087      7.56004     16.96164        -0.012915     -0.225889     -0.369255
 -----------------------------------------------------------------------------------
    total drift:                                0.024426      0.023512      0.021356


--------------------------------------------------------------------------------------------------------



  FREE ENERGIE OF THE ION-ELECTRON SYSTEM (eV)
  ---------------------------------------------------
  free  energy   TOTEN  =      -588.93718103 eV

  energy  without entropy=     -588.86832187  energy(sigma->0) =     -588.91422798
 
 d Force =-0.5172067E+00[-0.569E+00,-0.466E+00]  d Energy =-0.5171619E+00-0.449E-04
 d Force =-0.1222847E+01[-0.133E+01,-0.111E+01]  d Ewald  =-0.1222915E+01 0.679E-04


--------------------------------------------------------------------------------------------------------


    POTLOK:  cpu time      2.4468: real time      2.4473


--------------------------------------------------------------------------------------------------------


           RANDOM_SEED =         239325870              768                0
   IONSTEP:  cpu time      0.0002: real time      0.0006

  ENERGY OF THE ELECTRON-ION-THERMOSTAT SYSTEM (eV)
  ---------------------------------------------------
% ion-electron   TOTEN  =      -588.937181  see above
  kinetic energy EKIN   =         2.737576
  kin. lattice  EKIN_LAT=         0.000000  (temperature  166.76 K)
  nose potential ES     =        -0.153487
  nose kinetic   EPS    =         0.051091
  ---------------------------------------------------
  total energy   ETOTAL =      -586.302002 eV

  maximum distance moved by ions :      0.14E-02


 mean value of Nose-termostat <S>:    -0.009 mean value of <T> :   241.218
 mean temperature <T/S>/<1/S>  :   299.968

    WAVPRE:  cpu time      1.3532: real time      1.3534
    FEWALD:  cpu time      0.0220: real time      0.0220
    ORTHCH:  cpu time      1.7788: real time      1.7787
    POTLOK:  cpu time      2.4447: real time      2.4446
    EDDIAG:  cpu time      3.1838: real time      3.1837
     LOOP+:  cpu time    365.7859: real time    365.7636
    4ORBIT:  cpu time      0.0000: real time      0.0000

 total amount of memory used by VASP MPI-rank0  1259439. kBytes
=======================================================================

   base      :      30000. kBytes
   nonlr-proj:      24543. kBytes
   fftplans  :     804536. kBytes
   grid      :     292196. kBytes
   one-center:        196. kBytes
   wavefun   :     107968. kBytes
 
  
  
 General timing and accounting informations for this job:
 ========================================================
  
                  Total CPU time used (sec):     2389.793
                            User time (sec):     2369.056
                          System time (sec):       20.737
                         Elapsed time (sec):     2391.384
  
                   Maximum memory used (kb):     1756164.
                   Average memory used (kb):          N/A
  
                          Minor page faults:       812257
                          Major page faults:           45
                 Voluntary context switches:        26023
