      64
 i =        0, time =        0.000, E =      -251.6715338069
 Si        -0.0043932300        0.0007591194       -0.0003037888
 Si        -0.0043512671       -0.0007648434        0.0028388919
 Si        -0.0004233237       -0.0004283205       -0.0010488911
 Si        -0.0015499405        0.0029572111       -0.0000359795
 Si        -0.0010855137        0.0019366114       -0.0007155050
 Si        -0.0014794826        0.0001942293       -0.0001474818
 Si         0.0023358081       -0.0002935298       -0.0000420645
 Si         0.0055425162       -0.0028234268        0.0008077101
 Si         0.0060177145       -0.0009213827        0.0010113307
 Si         0.0023420708       -0.0024727107       -0.0004781811
 Si         0.0030262806       -0.0020220590        0.0012411682
 Si         0.0006571771       -0.0006135157       -0.0007767629
 Si         0.0018029026       -0.0029758483       -0.0006697814
 Si        -0.0027777787        0.0019411585        0.0006075935
 Si        -0.0018254864        0.0033698419       -0.0003669621
 Si         0.0047527898        0.0003276978        0.0006731609
 Si        -0.0061439145       -0.0000580943        0.0009253470
 Si         0.0004963423        0.0008370525        0.0009729192
 Si        -0.0031727806        0.0015998510        0.0016883127
 Si        -0.0029310706        0.0006781776        0.0008153762
 Si        -0.0032715655        0.0020630451        0.0017248003
 Si        -0.0029209945        0.0022815052       -0.0001913902
 Si         0.0030781264       -0.0017921854       -0.0000168488
 Si         0.0030409895       -0.0044893905        0.0004414102
 Si         0.0042056248       -0.0022445565        0.0009914183
 Si         0.0013270078       -0.0016321082        0.0011523386
 Si         0.0025231117       -0.0005028825       -0.0014287471
 Si         0.0046561941       -0.0017951256       -0.0009804664
 Si        -0.0001177678       -0.0000027419       -0.0003074692
 Si        -0.0023547119        0.0004983856        0.0009159873
 Si        -0.0028987440        0.0021578225        0.0010640938
 Si        -0.0003544768       -0.0019210083        0.0002292728
 Si         0.0048204693       -0.0015699827       -0.0028575399
 Si        -0.0027718637        0.0017735407       -0.0009235795
 Si        -0.0044300073        0.0004159964        0.0002262060
 Si        -0.0002642165        0.0019956055        0.0011237515
 Si        -0.0054237064        0.0012073907        0.0010066656
 Si        -0.0057020158        0.0052406554       -0.0012149341
 Si        -0.0027965890        0.0036873689        0.0012684404
 Si         0.0006094328       -0.0021321212        0.0002457044
 Si         0.0037783528       -0.0006976529       -0.0000430266
 Si         0.0018729267       -0.0027002129        0.0006961286
 Si         0.0019532610       -0.0021291322        0.0010561704
 Si         0.0008672242       -0.0024481739       -0.0016918914
 Si         0.0046152158        0.0008659129       -0.0036938288
 Si         0.0039677496       -0.0014168776       -0.0007621170
 Si        -0.0022477614        0.0042580008        0.0007169711
 Si        -0.0001045218       -0.0020001853       -0.0027507598
 Si        -0.0018143766        0.0014380042       -0.0009682704
 Si        -0.0010471768        0.0013280208       -0.0010207618
 Si        -0.0034952907        0.0020945040       -0.0034635536
 Si        -0.0013293804       -0.0002716688        0.0006549305
 Si        -0.0047281567        0.0012626044       -0.0000793281
 Si        -0.0023860940        0.0010286345       -0.0015845223
 Si        -0.0014940362        0.0040852305        0.0014722786
 Si         0.0027798157       -0.0003152500       -0.0003209284
 Si         0.0008773444       -0.0002556209       -0.0018939797
 Si         0.0037798007       -0.0003712086       -0.0012442640
 Si         0.0017198420       -0.0006620537        0.0019726010
 Si        -0.0007134333       -0.0020874673        0.0013005830
 Si         0.0016682199       -0.0007804717        0.0012949710
 Si        -0.0031826913        0.0035205011       -0.0014098724
 Si         0.0040550131       -0.0050233321        0.0021848104
 Si         0.0028134994       -0.0031883410        0.0001121707
      64
 i =        1, time =        1.000, E =      -251.6710689395
 Si        -0.0056429857        0.0010732363       -0.0007555531
 Si        -0.0042367753       -0.0007171250        0.0048324632
 Si         0.0002413659       -0.0005543909       -0.0002974410
 Si        -0.0031748831        0.0040636728       -0.0007032094
 Si        -0.0026761277        0.0020443374       -0.0003836605
 Si        -0.0011217743        0.0006548001       -0.0007666876
 Si         0.0019519722        0.0001520677       -0.0014169923
 Si         0.0072162367       -0.0015023920        0.0008838551
 Si         0.0071669897       -0.0017980148        0.0019269593
 Si         0.0029969035       -0.0035069458        0.0001596941
 Si         0.0034799483       -0.0028219556        0.0018609608
 Si         0.0008869680       -0.0010090707       -0.0013702018
 Si         0.0016848711       -0.0034644029        0.0002022128
 Si        -0.0025896563        0.0022106175       -0.0006398054
 Si        -0.0019532794        0.0016843370       -0.0005528007
 Si         0.0027961444       -0.0005557104       -0.0001023255
 Si        -0.0062023940        0.0018047290       -0.0004848565
 Si         0.0005904577        0.0011380061        0.0011013671
 Si        -0.0039999441        0.0013441889        0.0017971052
 Si        -0.0021407087        0.0004978013        0.0002292810
 Si        -0.0039164736        0.0021349378       -0.0002286939
 Si        -0.0016997050        0.0023669734        0.0008163775
 Si         0.0022270598       -0.0017244584        0.0015249262
 Si         0.0046247616       -0.0040543153        0.0003412078
 Si         0.0055022045       -0.0029160387        0.0019600110
 Si         0.0002875249       -0.0022513808        0.0003161611
 Si         0.0016435610        0.0001607902       -0.0019434027
 Si         0.0040020310       -0.0005997459       -0.0011161373
 Si         0.0018503885       -0.0002416964       -0.0009769414
 Si        -0.0026543677        0.0001009168        0.0014317409
 Si        -0.0026435194        0.0016768031        0.0005284414
 Si        -0.0001779853       -0.0021125738       -0.0007898594
 Si         0.0029996658       -0.0027871825       -0.0031612843
 Si        -0.0034647025        0.0030679188       -0.0000738315
 Si        -0.0055903880       -0.0007232475        0.0013483949
 Si         0.0013536069        0.0023653288        0.0008000466
 Si        -0.0033499143        0.0013467131        0.0015966077
 Si        -0.0042633539        0.0047471167       -0.0015787786
 Si        -0.0023100739        0.0035016582        0.0021512468
 Si         0.0023560585       -0.0024934287       -0.0002570581
 Si         0.0032558774       -0.0013014908        0.0008202203
 Si         0.0031188817       -0.0028814480        0.0014217888
 Si         0.0026488569       -0.0019692038        0.0006897724
 Si         0.0004297763       -0.0009809049       -0.0011868499
 Si         0.0062848944        0.0030488095       -0.0037543728
 Si         0.0045025326       -0.0015317959        0.0006074029
 Si        -0.0027265083        0.0048118785        0.0015925430
 Si        -0.0019475512       -0.0036354241       -0.0028871014
 Si        -0.0013130696        0.0006391680       -0.0003502828
 Si        -0.0025764790        0.0021638368       -0.0018679181
 Si        -0.0043791832        0.0025475412       -0.0043347296
 Si        -0.0022656739        0.0001175458        0.0005739764
 Si        -0.0058390206       -0.0005458603       -0.0019744035
 Si        -0.0025838579        0.0009549659       -0.0016324952
 Si         0.0002167499        0.0048909284        0.0030766892
 Si         0.0043638852       -0.0001272875        0.0005448125
 Si        -0.0001756834       -0.0003347937       -0.0020549932
 Si         0.0025446254       -0.0008806972       -0.0016876425
 Si         0.0025372895       -0.0010754857        0.0014997966
 Si        -0.0020356384       -0.0019763990        0.0021964772
 Si         0.0016656687       -0.0015371680        0.0003898022
 Si        -0.0036661066        0.0042484506       -0.0025899709
 Si         0.0040989066       -0.0044752640        0.0029183947
 Si         0.0017907193       -0.0024724817       -0.0002205315
      64
 i =        2, time =        2.000, E =      -251.6698552720
 Si        -0.0068349535        0.0013834945       -0.0012021911
 Si        -0.0040787120       -0.0006565908        0.0068182478
 Si         0.0009038936       -0.0006727153        0.0004535077
 Si        -0.0047834034        0.0051657147       -0.0013927439
 Si        -0.0042307373        0.0021213115       -0.0000440896
 Si        -0.0007648540        0.0010961072       -0.0013774083
 Si         0.0015605990        0.0005941876       -0.0027648035
 Si         0.0088487021       -0.0001539869        0.0009259267
 Si         0.0082677420       -0.0026711027        0.0028460273
 Si         0.0036459684       -0.0045209889        0.0008181007
 Si         0.0039077098       -0.0036019928        0.0024665259
 Si         0.0010966340       -0.0013888189       -0.0019458780
 Si         0.0015597746       -0.0039221316        0.0010542279
 Si        -0.0023911515        0.0024513117       -0.0018506441
 Si        -0.0020480529       -0.0000047747       -0.0007284480
 Si         0.0008075684       -0.0014532481       -0.0009073740
 Si        -0.0062469961        0.0036376501       -0.0018705960
 Si         0.0006802700        0.0014240136        0.0012228675
 Si        -0.0047963320        0.0010761204        0.0019002364
 Si        -0.0013238075        0.0002943458       -0.0003640910
 Si        -0.0045176195        0.0022029882       -0.0021691323
 Si        -0.0004413524        0.0024565162        0.0018339739
 Si         0.0013534638       -0.0016112978        0.0030533823
 Si         0.0061559529       -0.0035894213        0.0002238440
 Si         0.0067533748       -0.0035741954        0.0029211922
 Si        -0.0007817657       -0.0028738662       -0.0005398728
 Si         0.0007536223        0.0008161744       -0.0024332395
 Si         0.0033225487        0.0005903809       -0.0012196879
 Si         0.0038117322       -0.0005125852       -0.0016487187
 Si        -0.0029213165       -0.0002989881        0.0019348201
 Si        -0.0023583578        0.0011806103       -0.0000103768
 Si        -0.0000081649       -0.0022778899       -0.0017982930
 Si         0.0011798938       -0.0039818278       -0.0034828488
 Si        -0.0041016055        0.0043433705        0.0007679034
 Si        -0.0067311612       -0.0018866212        0.0024955461
 Si         0.0029417980        0.0027010849        0.0004813269
 Si        -0.0012605358        0.0014890642        0.0021734235
 Si        -0.0027753984        0.0042080729       -0.0019345892
 Si        -0.0018107372        0.0032985572        0.0030101908
 Si         0.0040632439       -0.0028138736       -0.0007479487
 Si         0.0027207361       -0.0018791715        0.0016681446
 Si         0.0043295338       -0.0030534329        0.0021312370
 Si         0.0033073859       -0.0017898759        0.0003209568
 Si        -0.0000312989        0.0004989462       -0.0006615940
 Si         0.0078609469        0.0051756434       -0.0038594846
 Si         0.0050036420       -0.0016435197        0.0019709448
 Si        -0.0031676377        0.0053190412        0.0024643095
 Si        -0.0037904862       -0.0052549435       -0.0030482589
 Si        -0.0008056039       -0.0001580635        0.0002573027
 Si        -0.0040859290        0.0029991343       -0.0027172223
 Si        -0.0052306014        0.0029895685       -0.0051856619
 Si        -0.0031706582        0.0004968303        0.0004732493
 Si        -0.0068324044       -0.0023053448       -0.0038105751
 Si        -0.0027484131        0.0008707796       -0.0016680695
 Si         0.0019578822        0.0056999439        0.0046871659
 Si         0.0059223298        0.0000425971        0.0014125625
 Si        -0.0012303064       -0.0004051538       -0.0022015413
 Si         0.0012753918       -0.0013965608       -0.0021426913
 Si         0.0033234728       -0.0014706670        0.0010246245
 Si        -0.0033627486       -0.0018233403        0.0030784364
 Si         0.0016233834       -0.0022812305       -0.0005057003
 Si        -0.0041313471        0.0049441990       -0.0037455271
 Si         0.0040984087       -0.0038938520        0.0036262476
 Si         0.0007564901       -0.0017453364       -0.0005370485
      64
 i =        3, time =        3.000, E =      -251.6679063340
 Si        -0.0079730781        0.0016907051       -0.0016411733
 Si        -0.0038740652       -0.0005780453        0.0088001232
 Si         0.0015646289       -0.0007835579        0.0012076428
 Si        -0.0063823695        0.0062689335       -0.0021053324
 Si        -0.0057554586        0.0021687920        0.0003060648
 Si        -0.0004108117        0.0015202257       -0.0019830906
 Si         0.0011617089        0.0010349240       -0.0040901413
 Si         0.0104433050        0.0012274353        0.0009358555
 Si         0.0093231583       -0.0035412088        0.0037678583
 Si         0.0042906114       -0.0055180198        0.0014976796
 Si         0.0043114162       -0.0043671057        0.0030556338
 Si         0.0012856725       -0.0017543830       -0.0025072639
 Si         0.0014272596       -0.0043519789        0.0018918649
 Si        -0.0021808846        0.0026623265       -0.0030306267
 Si        -0.0021081708       -0.0017062499       -0.0008959726
 Si        -0.0012204822       -0.0023675881       -0.0017454894
 Si        -0.0062748873        0.0054447229       -0.0032337428
 Si         0.0007663425        0.0016962879        0.0013362329
 Si        -0.0055646593        0.0007950038        0.0019997763
 Si        -0.0004778337        0.0000658882       -0.0009670775
 Si        -0.0050785463        0.0022624923       -0.0041028545
 Si         0.0008578908        0.0025490943        0.0028634398
 Si         0.0004520367       -0.0014512367        0.0045717533
 Si         0.0076428611       -0.0030927807        0.0000885033
 Si         0.0079632232       -0.0042202059        0.0038763585
 Si        -0.0018850667       -0.0035031297       -0.0014182453
 Si        -0.0001516993        0.0014678258       -0.0028994115
 Si         0.0026150757        0.0017787546       -0.0012904529
 Si         0.0057725398       -0.0008142755       -0.0023254530
 Si        -0.0031534008       -0.0006996105        0.0024274484
 Si        -0.0020410501        0.0006640675       -0.0005545102
 Si         0.0001605412       -0.0024190319       -0.0027999682
 Si        -0.0006430217       -0.0051583762       -0.0038227704
 Si        -0.0046824390        0.0056048773        0.0016084713
 Si        -0.0078574359       -0.0030758283        0.0036704448
 Si         0.0045081129        0.0030061357        0.0001648008
 Si         0.0008507905        0.0016321874        0.0027383105
 Si        -0.0012342219        0.0036183386       -0.0022853359
 Si        -0.0012982770        0.0030792554        0.0038466872
 Si         0.0057364375       -0.0030966652       -0.0012301155
 Si         0.0021693414       -0.0024334753        0.0025063779
 Si         0.0055067544       -0.0032126793        0.0028229122
 Si         0.0039323726       -0.0015909747       -0.0000497208
 Si        -0.0005161246        0.0019964708       -0.0001127220
 Si         0.0093523887        0.0072548163       -0.0040021288
 Si         0.0054735307       -0.0017478200        0.0033311542
 Si        -0.0035748171        0.0057797567        0.0033389353
 Si        -0.0056358807       -0.0068635879       -0.0032311002
 Si        -0.0002868138       -0.0009556151        0.0008544902
 Si        -0.0055787603        0.0038341580       -0.0035702661
 Si        -0.0060510449        0.0034175051       -0.0060167972
 Si        -0.0040507026        0.0008701438        0.0003525019
 Si        -0.0077156299       -0.0040264676       -0.0055993322
 Si        -0.0028826840        0.0007764396       -0.0016927101
 Si         0.0037327975        0.0065107608        0.0063109857
 Si         0.0074574423        0.0001978628        0.0022841821
 Si        -0.0022907309       -0.0004667734       -0.0023326171
 Si        -0.0000362856       -0.0019198956       -0.0026141888
 Si         0.0040788026       -0.0018477430        0.0005427134
 Si        -0.0046981858       -0.0016269873        0.0039487079
 Si         0.0015442028       -0.0030166210       -0.0013940793
 Si        -0.0045791502        0.0056117476       -0.0048791808
 Si         0.0040549300       -0.0032784379        0.0043123761
 Si        -0.0002921201       -0.0010013582       -0.0008364399
      64
 i =        4, time =        4.000, E =      -251.6652674101
 Si        -0.0090431811        0.0019910608       -0.0020636623
 Si        -0.0036230993       -0.0004776680        0.0107520835
 Si         0.0022160170       -0.0008858026        0.0019572848
 Si        -0.0079518910        0.0073616322       -0.0028307713
 Si        -0.0072313349        0.0021870672        0.0006642774
 Si        -0.0000649144        0.0019229792       -0.0025785601
 Si         0.0007594037        0.0014702564       -0.0053780094
 Si         0.0119776847        0.0026271274        0.0009159176
 Si         0.0103185096       -0.0043956579        0.0046781510
 Si         0.0049204438       -0.0064852856        0.0021886872
 Si         0.0046872381       -0.0051106568        0.0036176703
 Si         0.0014504453       -0.0021014478       -0.0030494779
 Si         0.0012888532       -0.0047496260        0.0027088345
 Si        -0.0019607612        0.0028395687       -0.0041677422
 Si        -0.0021312762       -0.0034041789       -0.0010553800
 Si        -0.0032645529       -0.0032872668       -0.0026078698
 Si        -0.0062823718        0.0072039847       -0.0045560264
 Si         0.0008469564        0.0019519920        0.0014382654
 Si        -0.0062947494        0.0005035752        0.0020963548
 Si         0.0003896960       -0.0001868676       -0.0015737995
 Si        -0.0055915309        0.0023076952       -0.0060072695
 Si         0.0021844210        0.0026423043        0.0038914679
 Si        -0.0004703806       -0.0012451213        0.0060605918
 Si         0.0090706350       -0.0025695964       -0.0000636290
 Si         0.0091165184       -0.0048449064        0.0048128793
 Si        -0.0030120395       -0.0041324605       -0.0023086162
 Si        -0.0010625493        0.0021106242       -0.0033355822
 Si         0.0018864382        0.0029512036       -0.0013272043
 Si         0.0077090383       -0.0011417528       -0.0029992317
 Si        -0.0033450021       -0.0010939936        0.0029043624
 Si        -0.0016947429        0.0001292648       -0.0010980310
 Si         0.0003293537       -0.0025349589       -0.0037839824
 Si        -0.0024484250       -0.0063032431       -0.0041745861
 Si        -0.0051973981        0.0068382840        0.0024428360
 Si        -0.0089560252       -0.0042748793        0.0048578953
 Si         0.0060372082        0.0032784587       -0.0001473715
 Si         0.0029590423        0.0017715935        0.0032831306
 Si         0.0003414283        0.0029813599       -0.0026290119
 Si        -0.0007796140        0.0028473471        0.0046495750
 Si         0.0073566208       -0.0033402355       -0.0016996749
 Si         0.0016062801       -0.0029596467        0.0033288263
 Si         0.0066348203       -0.0033530251        0.0034859121
 Si         0.0045183261       -0.0013738279       -0.0004173114
 Si        -0.0010193940        0.0034939566        0.0004550368
 Si         0.0107433693        0.0092641145       -0.0041730702
 Si         0.0059053887       -0.0018377605        0.0046703777
 Si        -0.0039449405        0.0061864413        0.0042100960
 Si        -0.0074599450       -0.0084419844       -0.0034286224
 Si         0.0002421248       -0.0017444411        0.0014324069
 Si        -0.0070350991        0.0046566050       -0.0044155907
 Si        -0.0068288864        0.0038217494       -0.0068157113
 Si        -0.0048987227        0.0012356588        0.0002127815
 Si        -0.0084822701       -0.0056955866       -0.0073253249
 Si        -0.0029864975        0.0006734334       -0.0017069902
 Si         0.0055178730        0.0073096808        0.0079297829
 Si         0.0089490241        0.0003397983        0.0031491503
 Si        -0.0033450856       -0.0005180288       -0.0024458798
 Si        -0.0013787657       -0.0024429725       -0.0031004323
 Si         0.0047923258       -0.0022019402        0.0000571633
 Si        -0.0060271470       -0.0013887817        0.0047961901
 Si         0.0014308325       -0.0037368713       -0.0022639184
 Si        -0.0050028221        0.0062441834       -0.0059767616
 Si         0.0039697001       -0.0026365033        0.0049707068
 Si        -0.0013412704       -0.0002457684       -0.0011136308
      64
 i =        5, time =        5.000, E =      -251.6619927651
 Si        -0.0100390001        0.0022821411       -0.0024636459
 Si        -0.0033246432       -0.0003513475        0.0126581808
 Si         0.0028530292       -0.0009792138        0.0026990773
 Si        -0.0094831067        0.0084375837       -0.0035618937
 Si        -0.0086510143        0.0021778045        0.0010298999
 Si         0.0002684865        0.0023030459       -0.0031622880
 Si         0.0003566608        0.0018986343       -0.0066213944
 Si         0.0134391486        0.0040373490        0.0008700174
 Si         0.0112461980       -0.0052262042        0.0055671871
 Si         0.0055294451       -0.0074158847        0.0028844146
 Si         0.0050329480       -0.0058299148        0.0041456022
 Si         0.0015889346       -0.0024283816       -0.0035711028
 Si         0.0011451112       -0.0051142535        0.0035038613
 Si        -0.0017307002        0.0029808018       -0.0052578983
 Si        -0.0021152837       -0.0050924780       -0.0012075888
 Si        -0.0053127474       -0.0042051078       -0.0034888267
 Si        -0.0062641914        0.0089033140       -0.0058274653
 Si         0.0009220191        0.0021898816        0.0015265002
 Si        -0.0069822319        0.0002038229        0.0021909936
 Si         0.0012734731       -0.0004632937       -0.0021812157
 Si        -0.0060544772        0.0023327830       -0.0078712970
 Si         0.0035291406        0.0027329704        0.0049098204
 Si        -0.0014103042       -0.0009943807        0.0075087480
 Si         0.0104340837       -0.0020226747       -0.0002315606
 Si         0.0102061818       -0.0054426150        0.0057229897
 Si        -0.0041557775       -0.0047583989       -0.0032046430
 Si        -0.0019754912        0.0027435886       -0.0037390393
 Si         0.0011404583        0.0041009056       -0.0013295009
 Si         0.0096092060       -0.0014898362       -0.0036659598
 Si        -0.0034921219       -0.0014772470        0.0033631977
 Si        -0.0013201581       -0.0004237664       -0.0016382310
 Si         0.0005021411       -0.0026261686       -0.0047448286
 Si        -0.0042252865       -0.0074100726       -0.0045337071
 Si        -0.0056418997        0.0080367588        0.0032704923
 Si        -0.0100197438       -0.0054731195        0.0060479769
 Si         0.0075229906        0.0035187616       -0.0004553696
 Si         0.0050516395        0.0019028278        0.0038037670
 Si         0.0019404343        0.0022976033       -0.0029653666
 Si        -0.0002588844        0.0026052235        0.0054128636
 Si         0.0089144703       -0.0035460713       -0.0021555281
 Si         0.0010324374       -0.0034556514        0.0041339446
 Si         0.0077044199       -0.0034685445        0.0041127538
 Si         0.0050630914       -0.0011400292       -0.0007783406
 Si        -0.0015365071        0.0049823041        0.0010390088
 Si         0.0120294466        0.0111934930       -0.0043618447
 Si         0.0062964715       -0.0019076922        0.0059782963
 Si        -0.0042783405        0.0065351706        0.0050759975
 Si        -0.0092472682       -0.0099786711       -0.0036329735
 Si         0.0007823792       -0.0025194990        0.0019861616
 Si        -0.0084438510        0.0054576885       -0.0052456430
 Si        -0.0075575767        0.0041946242       -0.0075744124
 Si        -0.0057128627        0.0015938633        0.0000553476
 Si        -0.0091337917       -0.0073088799       -0.0089844063
 Si        -0.0030615295        0.0005628001       -0.0017122529
 Si         0.0072986102        0.0080853124        0.0095335583
 Si         0.0103845031        0.0004719909        0.0040006105
 Si        -0.0043880905       -0.0005581421       -0.0025388914
 Si        -0.0027474031       -0.0029618196       -0.0036007380
 Si         0.0054574531       -0.0025306386       -0.0004321601
 Si        -0.0073401652       -0.0011102755        0.0056155592
 Si         0.0012875435       -0.0044389026       -0.0031092596
 Si        -0.0053987000        0.0068392889       -0.0070308599
 Si         0.0038449172       -0.0019730098        0.0055993004
 Si        -0.0023850366        0.0005201495       -0.0013660322
      64
 i =        6, time =        6.000, E =      -251.6581359419
 Si        -0.0109568798        0.0025624868       -0.0028360522
 Si        -0.0029780479       -0.0001953458        0.0145076574
 Si         0.0034737908       -0.0010640534        0.0034317106
 Si        -0.0109690282        0.0094931227       -0.0042933588
 Si        -0.0100089890        0.0021425442        0.0014029918
 Si         0.0005873990        0.0026606178       -0.0037347480
 Si        -0.0000461828        0.0023203109       -0.0078172761
 Si         0.0148179900        0.0054537249        0.0008028387
 Si         0.0121000225       -0.0060268391        0.0064276285
 Si         0.0061117305       -0.0083049192        0.0035795037
 Si         0.0053486031       -0.0065250689        0.0046340963
 Si         0.0016997265       -0.0027343790       -0.0040725323
 Si         0.0009966621       -0.0054453283        0.0042783053
 Si        -0.0014911780        0.0030843491       -0.0063007123
 Si        -0.0020590698       -0.0067701132       -0.0013543291
 Si        -0.0073576987       -0.0051159806       -0.0043844116
 Si        -0.0062154159        0.0105367329       -0.0070421553
 Si         0.0009903687        0.0024098093        0.0015986236
 Si        -0.0076236226       -0.0001038517        0.0022849885
 Si         0.0021727386       -0.0007637726       -0.0027882130
 Si        -0.0064647331        0.0023321770       -0.0096889579
 Si         0.0048880260        0.0028178532        0.0059125580
 Si        -0.0023681648       -0.0007006206        0.0089091001
 Si         0.0117316889       -0.0014535737       -0.0004144172
 Si         0.0112275551       -0.0060091206        0.0066021300
 Si        -0.0053142449       -0.0053784077       -0.0041025098
 Si        -0.0028884587        0.0033673784       -0.0041077697
 Si         0.0003786110        0.0052243705       -0.0012981769
 Si         0.0114653870       -0.0018543390       -0.0043225001
 Si        -0.0035921481       -0.0018459129        0.0038025375
 Si        -0.0009181971       -0.0009972998       -0.0021737570
 Si         0.0006815997       -0.0026930630       -0.0056803417
 Si        -0.0059693067       -0.0084753916       -0.0048948008
 Si        -0.0060125570        0.0091965426        0.0040939748
 Si        -0.0110437737       -0.0066629416        0.0072333879
 Si         0.0089638432        0.0037281551       -0.0007596682
 Si         0.0071218280        0.0020215551        0.0042963887
 Si         0.0035557043        0.0015663296       -0.0032950694
 Si         0.0002616293        0.0023541127        0.0061329248
 Si         0.0104061657       -0.0037161423       -0.0025979592
 Si         0.0004478006       -0.0039222226        0.0049233907
 Si         0.0087105049       -0.0035536215        0.0046984797
 Si         0.0055672521       -0.0008891821       -0.0011309683
 Si        -0.0020651686        0.0064559289        0.0016383418
 Si         0.0132085148        0.0130391331       -0.0045582898
 Si         0.0066436512       -0.0019511255        0.0072485518
 Si        -0.0045763439        0.0068227273        0.0059375575
 Si        -0.0109883643       -0.0114665223       -0.0038354959
 Si         0.0013376286       -0.0032786797        0.0025120679
 Si        -0.0097974649        0.0062312600       -0.0060550199
 Si        -0.0082321661        0.0045294653       -0.0082871169
 Si        -0.0064944295        0.0019462500       -0.0001195659
 Si        -0.0096744388       -0.0088682509       -0.0105766792
 Si        -0.0031094184        0.0004452595       -0.0017093720
 Si         0.0090640374        0.0088281794        0.0111154027
 Si         0.0117563592        0.0005985622        0.0048347235
 Si        -0.0054167095       -0.0005862093       -0.0026102307
 Si        -0.0041406706       -0.0034727077       -0.0041164258
 Si         0.0060705501       -0.0028324475       -0.0009266476
 Si        -0.0086329211       -0.0007930020        0.0064029856
 Si         0.0011174634       -0.0051222163       -0.0039262500
 Si        -0.0057637676        0.0073962296       -0.0080374606
 Si         0.0036825359       -0.0012903619        0.0061981035
 Si        -0.0034185454        0.0012981894       -0.0015917412
      64
 i =        7, time =        7.000, E =      -251.6538384628
 Si        -0.0117782229        0.0028254553       -0.0031696754
 Si        -0.0025882864       -0.0000090698        0.0162565168
 Si         0.0040643782       -0.0011394129        0.0041412099
 Si        -0.0123790964        0.0105058495       -0.0050061182