      64
 i =        0, time =        0.000, E =      -251.6715338069
 Si         1.3969716200        4.0651243600        1.3552908900
 Si         4.1541196600        9.5857036700        9.4404986100
 Si         9.7664156300        4.1131587400        4.0552807700
 Si         9.7367977900        4.1891333700        9.4524928000
 Si         9.7779693700        9.4924879800        4.0497530200
 Si         9.7365516400        9.5844214700        9.4509254200
 Si         2.8008899100       -0.0047546454       -0.0003630738
 Si         2.7586448400        0.0944669500        5.4016244800
 Si         2.7992512800        5.3832760900        0.0007589798
 Si         2.7655847800        5.4735714000        5.4003231200
 Si         8.3952906600        0.0029598356       -0.0003427684
 Si         8.3704785900        0.0880229900        5.4070348600
 Si         8.3998304500        5.3884310400        0.0042607505
 Si         4.1483935700        4.1955567900        9.4469120700
 Si         4.1748396100        9.4826468100        4.0502864100
 Si         8.3595331700        5.4751343900        5.3980056100
 Si         4.2015238400        6.7601680800        1.3457169100
 Si         4.1539215700        6.8423132100        6.7446929200
 Si         9.7919352700        1.3684308000        1.3444200100
 Si         9.7545325600        1.4615697900        6.7530502600
 Si         9.7902842400        6.7533718600        1.3443519400
 Si         9.7609124600        6.8394890600        6.7495309700
 Si         2.7778264100        2.7373878200        2.7048835300
 Si         2.7494134900        2.8399555300        8.1013493300
 Si         2.7795503900        8.1213828300        2.6955939700
 Si         2.7606364500        8.2126474700        8.0993988900
 Si         8.3827290400        2.7372856500        2.7033997900
 Si         8.3423577900        2.8293463000        8.1029916200
 Si         4.1846129300        1.3765062100        1.3486754400
 Si         4.1564034500        1.4663578000        6.7471312800
 Si         4.1732544500        4.1020302900        4.0467106500
 Si         5.5784837900        8.1655817300        5.3968008300
 Si         5.6000675000        8.0858674400        0.0083422900
 Si         1.3965922100        9.4441397500        1.3485695100
 Si         1.3702355300        9.5397282900        6.7508007300
 Si         6.9807857800        4.0597270000        1.3486907300
 Si         6.9662823900        4.1521296300        6.7455241500
 Si         7.0048105600        9.4412797600        1.3538096600
 Si         6.9640692900        9.5260883300        6.7439331600
 Si        -0.0108952300        0.0467972200        2.6985971900
 Si        11.1388415300        0.1323017400        8.1041268800
 Si        -0.0146458400        5.4374223300        2.6992033300
 Si        -0.0407564800        5.5194088500        8.1003744400
 Si         5.5834328700        0.0503860400        2.7095027500
 Si         5.5433179400        0.1281551200        8.1048353800
 Si         5.5766851800        5.4328296200        2.7035816000
 Si         1.3560199700        4.1391733800        6.7448752100
 Si         5.5613861500        5.5236509500        8.1043066500
 Si         1.3402983600        1.5008048100        9.4537827600
 Si         1.3720701200        6.7977738600        4.0519875300
 Si         1.3477829400        6.8883982300        9.4651255700
 Si         6.9752938700        1.4166313100        4.0522206600
 Si         6.9478102100        1.4954070200        9.4448454400
 Si         6.9774393300        6.8021899700        4.0476180200
 Si         6.9393198600        6.8831353100        9.4513365400
 Si         0.0051872400        2.6924522800        0.0034696800
 Si        -0.0301656900        2.7753138700        5.4034875900
 Si        -0.0034353302        8.0791217900        0.0044482848
 Si        -0.0235802900        8.1673450600        5.3956464600
 Si         5.6138058400        2.6912442500       -0.0111417300
 Si         5.5734215400        2.7841189200        5.3944824500
 Si         1.3734849000        1.4038892200        4.0547094200
 Si         8.3875167200        8.1347754300        2.6941977400
 Si         8.3511608900        8.2143485600        8.1015795500
      64
 i =        1, time =        1.000, E =      -251.6710689395
 Si         1.4017021425        4.0622833002        1.3542511801
 Si         4.1557394217        9.5845295870        9.4388435008
 Si         9.7651200555        4.1111749981        4.0520011535
 Si         9.7429688987        4.1847360224        9.4545498528
 Si         9.7837149361        9.4902913177        4.0504340139
 Si         9.7384547868        9.5823336367        9.4550238446
 Si         2.8008862173       -0.0068023411        0.0021331434
 Si         2.7539525157        0.0909411260        5.3990936225
 Si         2.7956765243        5.3863606377       -0.0023168261
 Si         2.7649284090        5.4799745928        5.3981101281
 Si         8.3939425692        0.0082088517       -0.0026079755
 Si         8.3727217697        0.0871081176        5.4107426024
 Si         8.3998359049        5.3896775906        0.0003360940
 Si         4.1461041797        4.1949583893        9.4495865625
 Si         4.1743592248        9.4883836518        4.0502394977
 Si         8.3656226032        5.4771236930        5.3987704380
 Si         4.2011513511        6.7557202221        1.3490356339
 Si         4.1528556947        6.8437253259        6.7456984123
 Si         9.7936462259        1.3686303481        1.3436074954
 Si         9.7523794257        1.4644913237        6.7543998915
 Si         9.7920395182        6.7531324721        1.3506578027
 Si         9.7572915040        6.8396799677        6.7480121963
 Si         2.7823856307        2.7375658798        2.7029247585
 Si         2.7406906074        2.8392254436        8.1016575563
 Si         2.7762022519        8.1239768527        2.6934312984
 Si         2.7652202116        8.2158776961        8.1032953746
 Si         8.3843303311        2.7326345591        2.7047015735
 Si         8.3434249144        2.8296273004        8.1028767152
 Si         4.1793189440        1.3758990302        1.3503787110
 Si         4.1523275407        1.4665905609        6.7457352986
 Si         4.1728765950        4.1061502330        4.0494124183
 Si         5.5762719448        8.1675317475        5.3997662215
 Si         5.6064474657        8.0894916344        0.0118793922
 Si         1.3975742615        9.4413213676        1.3460738174
 Si         1.3760367907        9.5420497736        6.7485009979
 Si         6.9768245761        4.0564193777        1.3489974576
 Si         6.9607806440        4.1548242905        6.7438857791
 Si         7.0032219618        9.4469973938        1.3552397540
 Si         6.9640450184        9.5252716722        6.7435878525
 Si        -0.0156084802        0.0466984524        2.6988082923
 Si        11.1393777779        0.1327873206        8.0989001926
 Si        -0.0163053986        5.4341339416        2.6972422232
 Si        -0.0425431191        5.5180071874        8.0988836202
 Si         5.5842065712        0.0484761482        2.7089662630
 Si         5.5381111590        0.1230678499        8.1043302037
 Si         5.5758052066        5.4312760696        2.7002810907
 Si         1.3578301626        4.1400907569        6.7382350673
 Si         5.5628038083        5.5283008477        8.1040257169
 Si         1.3353924460        1.5000917559        9.4523500595
 Si         1.3739908368        6.7963081437        4.0527485174
 Si         1.3494693183        6.8883097513        9.4646990307
 Si         6.9787664193        1.4135155510        4.0555721300
 Si         6.9493556612        1.5020501185        9.4477552318
 Si         6.9775544319        6.8026233807        4.0480568065
 Si         6.9343665001        6.8823492552        9.4457821397
 Si         0.0025317628        2.6895614351        0.0025574353
 Si        -0.0263615204        2.7747252034        5.4015219622
 Si         0.0021434466        8.0777238023        0.0083804418
 Si        -0.0229505471        8.1670152941        5.3997462611
 Si         5.6147097821        2.6898628316       -0.0125491288
 Si         5.5718107867        2.7863428783        5.3976297696
 Si         1.3749058944        1.4005688403        4.0548599995
 Si         8.3868884925        8.1353470173        2.6927819467
 Si         8.3542555878        8.2118495348        8.1037973987
      64
 i =        2, time =        2.000, E =      -251.6698552720
 Si         1.4063216692        4.0594680412        1.3532006510
 Si         4.1572805152        9.5833456876        9.4372776557
 Si         9.7638318700        4.1091862673        4.0487242127
 Si         9.7490690790        4.1804209998        9.4565895280
 Si         9.7893994020        9.4881360336        4.0511065931
 Si         9.7403335425        9.5802624013        9.4590988394
 Si         2.8009169746       -0.0088424063        0.0045983277
 Si         2.7493988537        0.0873973121        5.3965844748
 Si         2.7922368617        5.3894060082       -0.0053512009
 Si         2.7643265021        5.4863004375        5.3959053007
 Si         8.3926591366        0.0133953943       -0.0048348744
 Si         8.3749751797        0.0861776512        5.4144172104
 Si         8.3998710750        5.3908600026       -0.0035755124
 Si         4.1437746282        4.1944004391        9.4522433044
 Si         4.1738455361        9.4941363518        4.0501829450
 Si         8.3717466598        5.4790983846        5.3995316126
 Si         4.2006703255        6.7513149538        1.3523377845
 Si         4.1518028129        6.8451541093        6.7467209080
 Si         9.7952824718        1.3688531313        1.3428286526
 Si         9.7501937223        1.4674145821        6.7557503077
 Si         9.7937214521        6.7529313320        1.3569443947
 Si         9.7536493064        6.8399121776        6.7465114965
 Si         2.7869731307        2.7377130826        2.7009976257
 Si         2.7320704005        2.8384255858        8.1019710583
 Si         2.7729592856        8.1265131566        2.6913084350
 Si         2.7697979715        8.2190603938        8.1071880234
 Si         8.3859567529        2.7279975426        2.7059659219
 Si         8.3445600735        2.8298970398        8.1027423947
 Si         4.1740703975        1.3752890528        1.3520606293
 Si         4.1482146447        1.4668245401        6.7443679520
 Si         4.1724530100        4.1102898079        4.0521169830
 Si         5.5740623031        8.1694397787        5.4027105119
 Si         5.6128649438        8.0930578947        0.0153521700
 Si         1.3984928081        9.4385639258        1.3435828519
 Si         1.3817253966        9.5443528871        6.7462306136
 Si         6.9728968262        4.0531614814        1.3493175604
 Si         6.9552330839        4.1575362022        6.7422795377
 Si         7.0015619780        9.4527849727        1.3566385365
 Si         6.9639800458        9.5245187716        6.7432813364
 Si        -0.0202687719        0.0465559288        2.6990143490
 Si        11.1399701778        0.1332487641        8.0937006055
 Si        -0.0179059172        5.4308026571        2.6953109410
 Si        -0.0442787045        5.5165741661        8.0974085729
 Si         5.5849859862        0.0465535635        2.7084101311
 Si         5.5330278503        0.1180466651        8.1037600049
 Si         5.5750068032        5.4296992453        2.6969992729
 Si         1.3595878744        4.1410908195        6.7316390671
 Si         5.5641836784        5.5328753664        8.1036945218
 Si         1.3304752169        1.4993917022        9.4509146401
 Si         1.3758614529        6.7948841481        4.0534747082
 Si         1.3510743547        6.8882664359        9.4641970387
 Si         6.9821906024        1.4104093939        4.0589256300
 Si         6.9507943533        1.5086675354        9.4506231564
 Si         6.9776236654        6.8030725940        4.0484657286
 Si         6.9294289324        6.8816513964        9.4402954453
 Si        -0.0000403010        2.6866753287        0.0016570075
 Si        -0.0225696419        2.7741320518        5.3995248246
 Si         0.0077536427        8.0763136531        0.0122733211
 Si        -0.0222775570        8.1666673487        5.4038626195
 Si         5.6155756228        2.6884498787       -0.0139143720
 Si         5.5702333145        2.7885343412        5.4007763627
 Si         1.3762587697        1.3973314437        4.0549645171
 Si         8.3863341051        8.1358382608        2.6914210670
 Si         8.3573744044        8.2093129224        8.1060059978
      64
 i =        3, time =        3.000, E =      -251.6679063340
 Si         1.4108600405        4.0566528830        1.3521196703
 Si         4.1587626245        9.5821398586        9.4358191855
 Si         9.7625485360        4.1071683323        4.0454268637
 Si         9.7551373599        4.1761601605        9.4586222036
 Si         9.7950581645        9.4859996716        4.0517842302
 Si         9.7422150416        9.5781926283        9.4631847799
 Si         2.8009756876       -0.0108896435        0.0070358638
 Si         2.7449626476        0.0838199944        5.3940699677
 Si         2.7889140207        5.3924304309       -0.0083614287
 Si         2.7637840565        5.4926009981        5.3936958433
 Si         8.3914338915        0.0185630652       -0.0070373481
 Si         8.3772676133        0.0852144646        5.4180892015
 Si         8.3999342244        5.3919830941       -0.0075023797
 Si         4.1413824242        4.1938811360        9.4548902806
 Si         4.1732910497        9.4999389190        4.0501129768
 Si         8.3779382210        5.4810644389        5.4002832978
 Si         4.2000742870        6.7469359738        1.3556354197
 Si         4.1507528581        6.8466205644        6.7477739788
 Si         9.7968478277        1.3690969418        1.3420767615
 Si         9.7479655526        1.4703684462        6.7571059900
 Si         9.7953378377        6.7527675314        1.3632470892
 Si         9.7499676522        6.8401899881        6.7450303046
 Si         2.7916244787        2.7378329754        2.6991079332
 Si         2.7234845632        2.8375550980        8.1022912540
 Si         2.7698079803        8.1290080693        2.6892189670
 Si         2.7744016109        8.2222197385        8.1111048944
 Si         8.3876106682        2.7233347426        2.7071980777
 Si         8.3457640392        2.8301795961        8.1025852677
 Si         4.1688439055        1.3746646844        1.3537279000
 Si         4.1440142046        1.4670552462        6.7430230606
 Si         4.1719839042        4.1144862744        4.0548448478
 Si         5.5718333298        8.1713239628        5.4056484624
 Si         5.6193590804        8.0965844748        0.0187933089
 Si         1.3993465587        9.4358596019        1.3410838811
 Si         1.3873439718        9.5466425261        6.7439847918
 Si         6.9689871651        4.0499232195        1.3496489826
 Si         6.9496149882        4.1602980814        6.7406979104
 Si         6.9998383382        9.4586974675        1.3580151407
 Si         6.9638823824        9.5238178575        6.7430255665
 Si        -0.0248974386        0.0463622429        2.6992089245
 Si        11.1406159938        0.1336808735        8.0884854659
 Si        -0.0194435175        5.4273882714        2.6934007021
 Si        -0.0459706796        5.5150969450        8.0959264119
 Si         5.5857716138        0.0446231370        2.7078374319
 Si         5.5280398735        0.1130737081        8.1031163787
 Si         5.5742902432        5.4280795692        2.6937239275
 Si         1.3613046476        4.1421939379        6.7250295148
 Si         5.5655082781        5.5373963719        8.1033063677
 Si         1.3255009972        1.4986827654        9.4494713218
 Si         1.3776758181        6.7935009991        4.0541589948
 Si         1.3526005251        6.8882757862        9.4635986823
 Si         6.9855882637        1.4072850802        4.0623166458
 Si         6.9521243152        1.5153015107        9.4534483754
 Si         6.9776447369        6.8035411575        4.0488486061
 Si         6.9244832280        6.8810486081        9.4348442698
 Si        -0.0025296228        2.6837649175        0.0007738232
 Si        -0.0187666660        2.7735265614        5.3974712851
 Si         0.0134351818        8.0748664809        0.0161619869
 Si        -0.0215397571        8.1662902891        5.4080329004
 Si         5.6163893189        2.6869923065       -0.0152368513
 Si         5.5686709474        2.7907043587        5.4039413062
 Si         1.3775500928        1.3941536576        4.0550034879
 Si         8.3858476191        8.1362646840        2.6901127085
 Si         8.3605337244        8.2067233177        8.1082242462
      64
 i =        4, time =        4.000, E =      -251.6652674101
 Si         1.4152802603        4.0538533666        1.3510041322
 Si         4.1601836516        9.5809176664        9.4345091605
 Si         9.7612863929        4.1051262688        4.0421341518
 Si         9.7611234337        4.1719887015        9.4606279191
 Si         9.8006437422        9.4838908669        4.0524707303
 Si         9.7440988234        9.5761392645        9.4672563560
 Si         2.8010552733       -0.0129289520        0.0094133445
 Si         2.7406888610        0.0802462419        5.3915592610
 Si         2.7857394168        5.3954075015       -0.0113202183
 Si         2.7633148441        5.4988358397        5.3915016861
 Si         8.3902787793        0.0236796449       -0.0091968940
 Si         8.3795944627        0.0842153139        5.4217354419
 Si         8.4000229721        5.3930348154       -0.0114156901
 Si         4.1389394429        4.1934063459        9.4574970300
 Si         4.1726964098        9.5057407456        4.0500267852
 Si         8.3841396209        5.4829985499        5.4010078882
 Si         4.1993640891        6.7426311768        1.3588925362
 Si         4.1497111418        6.8481245114        6.7488560646
 Si         9.7983225830        1.3693560708        1.3413564676
 Si         9.7457176008        1.4733384831        6.7584514319
 Si         9.7968724911        6.7526429686        1.3695091387
 Si         9.7462824884        6.8405143557        6.7435923011
 Si         2.7963074619        2.7379277753        2.6972896088
 Si         2.7149904675        2.8366254133        8.1026146438
 Si         2.7667816985        8.1314409147        2.6871875364
 Si         2.7789952519        8.2253330910        8.1150165458
 Si         8.3892702989        2.7186742509        2.7083851429
 Si         8.3470204353        2.8304950905        8.1024044880
 Si         4.1636930968        1.3740227229        1.3553624558
 Si         4.1397365774        1.4672747339        6.7417143283
 Si         4.1714762672        4.1187158205        4.0575767499
 Si         5.5695958762        8.1731748766        5.4085517493
 Si         5.6258748198        8.1000376130        0.0221842261
 Si         1.4001217183        9.4332408048        1.3386007021
 Si         1.3928519310        9.5488893224        6.7417925662
 Si         6.9651374832        4.0467217469        1.3499850071
 Si         6.9439834198        4.1631028983        6.7391567451
 Si         6.9980840835        9.4647040809        1.3593582640
 Si         6.9637612297        9.5231679178        6.7428366240
 Si        -0.0294480245        0.0461127297        2.6993827026
 Si        11.1413035107        0.1340720802        8.0832882220
 Si        -0.0208914017        5.4238996421        2.6915307541
 Si        -0.0476016060        5.5135840426        8.0944358407
 Si         5.5865520916        0.0427182622        2.7072598270
 Si         5.5231921924        0.1082039741        8.1023986031
 Si         5.5736669819        5.4264207102        2.6904909392
 Si         1.3629668305        4.1434050226        6.7184455193
 Si         5.5667397929        5.5418187872        8.1028590174
 Si         1.3204964281        1.4979533027        9.4480358046
 Si         1.3794005981        6.7921787284        4.0547835266
 Si         1.3540272816        6.8883457097        9.4628907257
 Si         6.9889314457        1.4041603053        4.0657311313
 Si         6.9533243859        1.5218978768        9.4561887801
 Si         6.9776148617        6.8040258525        4.0492034499
 Si         6.9195785084        6.8805580662        9.4294771722
 Si        -0.0048995158        2.6808432252       -0.0000733938
 Si        -0.0149849405        2.7729097283        5.3953660015
 Si         0.0191449411        8.0733779547        0.0200241090
 Si        -0.0207259716        8.1658785895        5.4122339786
 Si         5.6171239416        2.6854985149       -0.0164961155
 Si         5.5671279919        2.7928319744        5.4070976382
 Si         1.3787668769        1.3910591147        4.0549562440
 Si         8.3854304764        8.1366352108        2.6888740776
 Si         8.3637039205        8.2041028229        8.1104389498
      64
 i =        5, time =        5.000, E =      -251.6619927651
 Si         1.4195711897        4.0510694984        1.3498441807
 Si         4.1615504233        9.5796784283        9.4333805497
 Si         9.7600546760        4.1030541697        4.0388530277
 Si         9.7670105531        4.1679184689        9.4625975289
 Si         9.8061403284        9.4818060330        4.0531738248
 Si         9.7459946757        9.5741055789        9.4713107970
 Si         2.8011488800       -0.0149565093        0.0117121725
 Si         2.7365974142        0.0766939794        5.3890471698
 Si         2.7827254542        5.3983275423       -0.0142168420
 Si         2.7629295661        5.5049994722        5.3893309294
 Si         8.3891986533        0.0287415360       -0.0113074640
 Si         8.3819633561        0.0831718969        5.4253532138
 Si         8.4001351910        5.3940097188       -0.0153084452
 Si         4.1364445558        4.1929785622        9.4600481909
 Si         4.1720598138        9.5115229447        4.0499212792
 Si         8.3903266730        5.4848879602        5.4016913329
 Si         4.1985375353        6.7384238756        1.3620917456
 Si         4.1486771287        6.8496736181        6.7499712422
 Si         9.7996960980        1.3696259457        1.3406682817
 Si         9.7434607800        1.4763260528        6.7597784173
 Si         9.7983187912        6.7525584414        1.3757086443
 Si         9.7426101846        6.8408878415        6.7422131912
 Si         2.8010149741        2.7380011674        2.6955659622
 Si         2.7065975561        2.8356436509        8.1029391753
 Si         2.7638957906        8.1338049465        2.6852271688
 Si         2.7835677374        8.2283950361        8.1189147252
 Si         8.3909227415        2.7140184657        2.7095214078
 Si         8.3483190916        2.8308651169        8.1021989112
 Si         4.1586427996        1.3733560153        1.3569553146
 Si         4.1353696286        1.4674763682        6.7404478980
 Si         4.1709350237        4.1229773434        4.0603083606
 Si         5.5673485576        8.1749938423        5.4114083321
 Si         5.6323928856        8.1034032459        0.0255249373
 Si         1.4008101809        9.4307248540        1.3361434003
 Si         1.3982397793        9.5510761045        6.7396710733
 Si         6.9613678073        4.0435559238        1.3503207775
 Si         6.9383647826        4.1659588070        6.7376629650
 Si         6.9963235691        9.4708057046        1.3606642079
 Si         6.9636254061        9.5225638930        6.7427287811
 Si        -0.0339001336        0.0458022509        2.6995275692
 Si        11.1420243284        0.1344135650        8.0781135129
 Si        -0.0222318286        5.4203270865        2.6897094787
 Si        -0.0491638800        5.5120361670        8.0929274100
 Si         5.5873199758        0.0408619574        2.7066862349
 Si         5.5185009418        0.1034642922        8.1016018113
 Si         5.5731440346        5.4247176293        2.6873180546
 Si         1.3645707452        4.1447342781        6.7118899485
 Si         5.5678477041        5.5461225854        8.1023477461
 Si         1.3154610265        1.4971877954        9.4466156053
 Si         1.3810127680        6.7909297277        4.0553341638
 Si         1.3553429922        6.8884838744        9.4620569741
 Si         6.9922112493        1.4010355042        4.0691733537
 Si         6.9543825091        1.5284395707        9.4588185579
 Si         6.9775318334        6.8045258877        4.0495305234
 Si         6.9147371835        6.8801936647        9.4242129814
 Si        -0.0071273972        2.6779070506       -0.0008707302
 Si        -0.0112359731        2.7722793825        5.3932025822
 Si         0.0248703326        8.0718356731        0.0238583745
 Si        -0.0198215180        8.1654249652        5.4164655556
 Si         5.6177568733        2.6839696193       -0.0176791930
 Si         5.5655995722        2.7949082771        5.4102359892
 Si         1.3799035131        1.3880535469        4.0548027149
 Si         8.3850807792        8.1369615992        2.6877148720
 Si         8.3668725893        8.2014595791        8.1126494555
      64
 i =        6, time =        6.000, E =      -251.6581359419
 Si         1.4237355973        4.0482925204        1.3486264155
 Si         4.1628746382        9.5784179582        9.4324632559
 Si         9.7588587676        4.1009396071        4.0355801899
 Si         9.7728003351        4.1639489662        9.4645276563
 Si         9.8115496424        9.4797346893        4.0539037264
 Si         9.7479182287        9.5720882280        9.4753580721
 Si         2.8012499575       -0.0169748452        0.0139211249
 Si         2.7326953307        0.0731705084        5.3865201589
 Si         2.7798749122        5.4011900166       -0.0170495557
 Si         2.7626379002        5.5111058512        5.3871851819
 Si         8.3881949117        0.0337610353       -0.0133698825
 Si         8.3843891388        0.0820727023        5.4289512728
 Si         8.4002691185        5.3949055201       -0.0191860083
 Si         4.1338887360        4.1925985809        9.4625367606
 Si         4.1713779250        9.5172845696        4.0497930354
 Si         8.3964941326        5.4867254866        5.4023210384
 Si         4.1975896550        6.7343239237        1.3652260788
 Si         4.1476469964        6.8512803797        6.7511270366
 Si         9.8009621335        1.3699027070        1.3400107120
 Si         9.7411992972        1.4793415211        6.7610826860
 Si         9.7996749805        6.7525143511        1.3818432364
 Si         9.7389561883        6.8413144160        6.7409046614
 Si         2.8057543559        2.7380577746        2.6939549180
 Si         2.6982885775        2.8346140668        8.1032635164
 Si         2.7611563684        8.1361008411        2.6833448035
 Si         2.7881216656        8.2314094449        8.1228030959
 Si         8.3925600598        2.7093551322        2.7106049632
 Si         8.3496537230        2.8313125016        8.1019672197
 Si         4.1537022017        1.3726547662        1.3585022849
 Si         4.1308878012        1.4676541868        6.7392259233
 Si         4.1703637718        4.1272828751        4.0630438928
 Si         5.5650829835        8.1767881338        5.4142151361
 Si         5.6389146892        8.1066778887        0.0288254769
 Si         1.4014066997        9.4283213072        1.3337145039
 Si         1.4035147145        9.5531920636        6.7376314097
 Si         6.9576862418        4.0404143493        1.3506525158
 Si         6.9327679720        4.1688830738        6.7362187210
 Si         6.9945762487        9.4770219570        1.3619332445
 Si         6.9634833387        9.5219988642        6.7427158338
 Si        -0.0382476560        0.0454249947        2.6996358789
 Si        11.1427722129        0.1346977646        8.0729496897
 Si        -0.0234515406        5.4166496789        2.6879392698
 Si        -0.0506550652        5.5104493099        8.0913869028
 Si         5.5880698395        0.0390717495        2.7061241713
 Si         5.5139667464        0.0988662228        8.1007178622
 Si         5.5727266662        5.4229600466        2.6842130452
 Si         1.3661180215        4.1461957560        6.7053453056
 Si         5.5688046683        5.5503010896        8.1017657245
 Si         1.3103786300        1.4963682523        9.4452135287
 Si         1.3824943682        6.7897626176        4.0557982328
 Si         1.3565402988        6.8886982588        9.4610785230
 Si         6.9954291884        1.3979012378        4.0726581910
 Si         6.9552910998        1.5349304852        9.4613204663
 Si         6.9773933901        6.8050419728        4.0498311217
 Si         6.9099670202        6.8799685516        9.4190545585
 Si        -0.0091976654        2.6749437536       -0.0016066092
 Si        -0.0075196516        2.7716314935        5.3909678757
 Si         0.0306161406        8.0702221000        0.0276750188
 Si        -0.0188091334        8.1649208791        5.4207406301
 Si         5.6182670073        2.6824025005       -0.0187767767
 Si         5.5640755502        2.7969308011        5.4133570372
 Si         1.3809579480        1.3851331798        4.0545223734
 Si         8.3847951863        8.1372568699        2.6866411599
 Si         8.3700371930        8.1987936115        8.1148624179
      64
 i =        7, time =        7.000, E =      -251.6538384628
 Si         1.4277042681        4.0455622845        1.3473592148
 Si         4.1641455495        9.5771547127        9.4318026711
 Si         9.7577248495        4.0988073841        4.0323697107
 Si         9.7783932958        4.1601492448        9.4663809262