#     Step Nr.          Time[fs]        Kin.[a.u.]          Temp[K]            Pot.[a.u.]        Cons Qty[a.u.]        UsedTime[s]
         0            0.000000         0.089225576       298.150000000      -251.671533807      -251.582308230         0.000000000
         1            1.000000         0.088336241       295.178259617      -251.671068939      -251.582307389         5.345483296
         2            2.000000         0.086895417       290.363699515      -251.669855272      -251.582305278         1.348632179
         3            3.000000         0.086600790       289.379196964      -251.667906334      -251.582301937         1.299835443
         4            4.000000         0.084536870       282.482543132      -251.665267410      -251.582297462         1.307728700
         5            5.000000         0.083302843       278.359004755      -251.661992765      -251.582291879         1.346270248
         6            6.000000         0.080669958       269.561139294      -251.658135942      -251.582285296         1.308473051
         7            7.000000         0.075904737       253.638005989      -251.653838463      -251.582278023         1.309026927
         8            8.000000         0.069827221       233.329801718      -251.649239524      -251.582270365         1.557755820
         9            9.000000         0.065800559       219.874584807      -251.644454069      -251.582262561         1.309261039
        10           10.000000         0.061221780       204.574454038      -251.639563499      -251.582254732         1.305382870
        11           11.000000         0.057709149       192.836891535      -251.634710625      -251.582247123         1.308103263
        12           12.000000         0.054362596       181.654282816      -251.629970341      -251.582239921         1.315452673
        13           13.000000         0.049945381       166.894023078      -251.625493016      -251.582233393         1.312270418
        14           14.000000         0.046803983       156.396944153      -251.621358073      -251.582227825         1.550318979
        15           15.000000         0.044231438       147.800705682      -251.617648039      -251.582223288         1.552290037
        16           16.000000         0.041195474       137.655939433      -251.614405919      -251.582219972         1.310088076
        17           17.000000         0.038951519       130.157694512      -251.611745067      -251.582217821         1.551845990
        18           18.000000         0.038110599       127.347734011      -251.609702264      -251.582217081         1.546399705
        19           19.000000         0.038709222       129.348052808      -251.608247688      -251.582217569         1.304504409
        20           20.000000         0.037692026       125.949061891      -251.607393758      -251.582219171         1.552979827
        21           21.000000         0.037143257       124.115332497      -251.607132497      -251.582221878         1.621372171
        22           22.000000         0.038021893       127.051322935      -251.607419248      -251.582225540         1.310698383
        23           23.000000         0.039067282       130.544522013      -251.608197149      -251.582230134         1.308935732
        24           24.000000         0.040424798       135.080703285      -251.609396876      -251.582235286         1.307716563
        25           25.000000         0.042782291       142.958335974      -251.610942930      -251.582240802         1.309144616
        26           26.000000         0.045440792       151.841799384      -251.612725115      -251.582246501         1.303976096
        27           27.000000         0.046804167       156.397559823      -251.614666384      -251.582252094         1.311971128
        28           28.000000         0.049055736       163.921247830      -251.616670060      -251.582257551         1.550584689
        29           29.000000         0.050703492       169.427272293      -251.618633336      -251.582262593         1.305533737
        30           30.000000         0.052815443       176.484422602      -251.620478211      -251.582267089         1.306467257
        31           31.000000         0.053549130       178.936058876      -251.622129000      -251.582270983         1.304336399
        32           32.000000         0.055306246       184.807515629      -251.623523016      -251.582274131         1.306417838
        33           33.000000         0.055719055       186.186931791      -251.624633976      -251.582276633         1.306421831
        34           34.000000         0.057620547       192.540825337      -251.625412557      -251.582278424         1.555162676
        35           35.000000         0.057556268       192.326035717      -251.625827316      -251.582279427         1.308683850
        36           36.000000         0.058617100       195.870838637      -251.625861697      -251.582279664         1.305569433
        37           37.000000         0.058806226       196.502806094      -251.625502594      -251.582279167         1.305724114
        38           38.000000         0.057898444       193.469426833      -251.624757164      -251.582277869         1.310723074
        39           39.000000         0.057696393       192.794266337      -251.623636518      -251.582275899         1.306832053
        40           40.000000         0.057826061       193.227556935      -251.622148896      -251.582273350         1.546680011
        41           41.000000         0.055197100       184.442803855      -251.620330450      -251.582270200         1.307413734
        42           42.000000         0.054327466       181.536892390      -251.618246052      -251.582266642         1.308500566
        43           43.000000         0.051061355       170.623084641      -251.615954055      -251.582262803         1.348502234
        44           44.000000         0.049054676       163.917702556      -251.613517109      -251.582258688         1.311976612
        45           45.000000         0.047057441       157.243881094      -251.610963735      -251.582254414         1.366584845
        46           46.000000         0.044599615       149.030981452      -251.608408421      -251.582250163         1.545328349
        47           47.000000         0.042259476       141.211333571      -251.605871811      -251.582245939         1.555238128
        48           48.000000         0.039938094       133.454365046      -251.603444036      -251.582241895         1.304510593
        49           49.000000         0.037979058       126.908185340      -251.601191227      -251.582238174         1.311122529
        50           50.000000         0.036104393       120.643934744      -251.599167837      -251.582234875         1.309084035
