 DBCSR| CPU Multiplication driver                                           XSMM (U)
 DBCSR| Multrec recursion limit                                              512 (U)
 DBCSR| Multiplication stack size                                           1000 (D)
 DBCSR| Maximum elements for images                                    UNLIMITED (U)
 DBCSR| Multiplicative factor virtual images                                   1 (U)
 DBCSR| Use multiplication densification                                       T (D)
 DBCSR| Multiplication size stacks                                             3 (U)
 DBCSR| Use memory pool for CPU allocation                                     F (U)
 DBCSR| Number of 3D layers                                               SINGLE (U)
 DBCSR| Use MPI memory allocation                                              F (U)
 DBCSR| Use RMA algorithm                                                      F (U)
 DBCSR| Use Communication thread                                               T (U)
 DBCSR| Communication thread load                                             87 (D)
 DBCSR| MPI: My process id                                                     0
 DBCSR| MPI: Number of processes                                              64
 DBCSR| OMP: Current number of threads                                         1
 DBCSR| OMP: Max number of threads                                             1
 DBCSR| Split modifier for TAS multiplication algorithm                  1.0E+00 (U)


  **** **** ******  **  PROGRAM STARTED AT               2024-10-22 16:40:46.997
 ***** ** ***  *** **   PROGRAM STARTED ON                                   cn2
 **    ****   ******    PROGRAM STARTED BY                            wuxingxing
 ***** **    ** ** **   PROGRAM PROCESS ID                                 10871
  **** **  *******  **  PROGRAM STARTED IN /data/home/wuxingxing/datas/al_dir/si
                                           _6_cp2k/init_bulk/temp_init_bulk_work
                                           /aimd/init_config_0/relax/0_aimd

 CP2K| version string:                                       CP2K version 2024.3
 CP2K| source code revision number:                                  git:6712648
 CP2K| cp2kflags: omp libint fftw3 libxc libgrpp elpa parallel scalapack mpi_f08
 CP2K|             cosma quip xsmm plumed2 spglib mkl libvori libbqb
 CP2K| is freely available from                            https://www.cp2k.org/
 CP2K| Program compiled at                          Tue Oct 22 15:31:17 CST 2024
 CP2K| Program compiled on                                                 login
 CP2K| Program compiled for                                                local
 CP2K| Data directory path     /data/home/wuxingxing/tools/cp2k/cp2k-2024.3/data
 CP2K| Input file name                                                  cp2k.inp

 GLOBAL| Force Environment number                                              1
 GLOBAL| Basis set file name                                      BASIS_MOLOPT_1
 GLOBAL| Potential file name                                         POTENTIAL_1
 GLOBAL| MM Potential file name                                     MM_POTENTIAL
 GLOBAL| Coordinate file name                                      __STD_INPUT__
 GLOBAL| Method name                                                        CP2K
 GLOBAL| Project name                                                    CP2K_MD
 GLOBAL| Run type                                                             MD
 GLOBAL| FFT library                                                       FFTW3
 GLOBAL| Diagonalization library                                            ELPA
 GLOBAL| DGEMM library                                                      BLAS
 GLOBAL| Minimum number of eigenvectors for ELPA usage                        16
 GLOBAL| Orthonormality check for eigenvectors                          DISABLED
 GLOBAL| Matrix multiplication library                                     COSMA
 GLOBAL| All-to-all communication in single precision                          F
 GLOBAL| FFTs using library dependent lengths                                  F
 GLOBAL| Grid backend                                                       AUTO
 GLOBAL| Global print level                                               MEDIUM
 GLOBAL| MPI I/O enabled                                                       T
 GLOBAL| Total number of message passing processes                            64
 GLOBAL| Number of threads for this process                                    1
 GLOBAL| This output is from process                                           0
 GLOBAL| Stack size for threads created by OpenMP (OMP_STACKSIZE)        default
 GLOBAL| CPU model name            Intel(R) Xeon(R) Platinum 8375C CPU @ 2.90GHz
 GLOBAL| CPUID                                                              1003
 GLOBAL| Compiled for CPUID                                                 1002

 *** HINT in environment.F:921 :: The compiler target flags (x86_avx2)     ***
 *** used to build this binary cannot exploit all extensions of this CPU   ***
 *** model (x86_avx512). Consider compiler target flags as part of FCFLAGS ***
 *** and CFLAGS (ARCH file).                                               ***


 MEMORY| system memory details [Kb]
 MEMORY|                        rank 0           min           max       average
 MEMORY| MemTotal            263616260     263616260     263616260     263616260
 MEMORY| MemFree             243439576     243439576     243439576     243439576
 MEMORY| Buffers                  1724          1724          1724          1724
 MEMORY| Cached                 264716        264716        264716        264716
 MEMORY| Slab                   479120        479120        479120        479120
 MEMORY| SReclaimable           164084        164084        164084        164084
 MEMORY| MemLikelyFree       243870100     243870100     243870100     243870100


 *** Fundamental physical constants (SI units) ***

 *** Literature: B. J. Mohr and B. N. Taylor,
 ***             CODATA recommended values of the fundamental physical
 ***             constants: 2006, Web Version 5.1
 ***             http://physics.nist.gov/constants

 Speed of light in vacuum [m/s]                             2.99792458000000E+08
 Magnetic constant or permeability of vacuum [N/A**2]       1.25663706143592E-06
 Electric constant or permittivity of vacuum [F/m]          8.85418781762039E-12
 Planck constant (h) [J*s]                                  6.62606896000000E-34
 Planck constant (h-bar) [J*s]                              1.05457162825177E-34
 Elementary charge [C]                                      1.60217648700000E-19
 Electron mass [kg]                                         9.10938215000000E-31
 Electron g factor [ ]                                     -2.00231930436220E+00
 Proton mass [kg]                                           1.67262163700000E-27
 Fine-structure constant                                    7.29735253760000E-03
 Rydberg constant [1/m]                                     1.09737315685270E+07
 Avogadro constant [1/mol]                                  6.02214179000000E+23
 Boltzmann constant [J/K]                                   1.38065040000000E-23
 Atomic mass unit [kg]                                      1.66053878200000E-27
 Bohr radius [m]                                            5.29177208590000E-11

 *** Conversion factors ***

 [u] -> [a.u.]                                              1.82288848426455E+03
 [Angstrom] -> [Bohr] = [a.u.]                              1.88972613288564E+00
 [a.u.] = [Bohr] -> [Angstrom]                              5.29177208590000E-01
 [a.u.] -> [s]                                              2.41888432650478E-17
 [a.u.] -> [fs]                                             2.41888432650478E-02
 [a.u.] -> [J]                                              4.35974393937059E-18
 [a.u.] -> [N]                                              8.23872205491840E-08
 [a.u.] -> [K]                                              3.15774647902944E+05
 [a.u.] -> [kJ/mol]                                         2.62549961709828E+03
 [a.u.] -> [kcal/mol]                                       6.27509468713739E+02
 [a.u.] -> [Pa]                                             2.94210107994716E+13
 [a.u.] -> [bar]                                            2.94210107994716E+08
 [a.u.] -> [atm]                                            2.90362800883016E+08
 [a.u.] -> [eV]                                             2.72113838565563E+01
 [a.u.] -> [Hz]                                             6.57968392072181E+15
 [a.u.] -> [1/cm] (wave numbers)                            2.19474631370540E+05
 [a.u./Bohr**2] -> [1/cm]                                   5.14048714338585E+03
 

 CELL_TOP| Volume [angstrom^3]:                                      1302.455307
 CELL_TOP| Vector a [angstrom    11.196    -0.000     0.000   |a| =    11.195711
 CELL_TOP| Vector b [angstrom     0.012    10.771     0.000   |b| =    10.770930
 CELL_TOP| Vector c [angstrom    -0.068     0.176    10.801   |c| =    10.802509
 CELL_TOP| Angle (b,c), alpha [degree]:                                89.066154
 CELL_TOP| Angle (a,c), beta  [degree]:                                90.362407
 CELL_TOP| Angle (a,b), gamma [degree]:                                89.936699
 CELL_TOP| Numerically orthorhombic:                                          NO
 CELL_TOP| Periodicity                                                       XYZ

 GENERATE|  Preliminary Number of Bonds generated:                             0
 GENERATE|  Achieved consistency in connectivity generation.

 CELL| Volume [angstrom^3]:                                          1302.455307
 CELL| Vector a [angstrom]:      11.196    -0.000     0.000   |a| =    11.195711
 CELL| Vector b [angstrom]:       0.012    10.771     0.000   |b| =    10.770930
 CELL| Vector c [angstrom]:      -0.068     0.176    10.801   |c| =    10.802509
 CELL| Angle (b,c), alpha [degree]:                                    89.066154
 CELL| Angle (a,c), beta  [degree]:                                    90.362407
 CELL| Angle (a,b), gamma [degree]:                                    89.936699
 CELL| Numerically orthorhombic:                                              NO
 CELL| Periodicity                                                           XYZ

 CELL_REF| Volume [angstrom^3]:                                      1302.455307
 CELL_REF| Vector a [angstrom    11.196    -0.000     0.000   |a| =    11.195711
 CELL_REF| Vector b [angstrom     0.012    10.771     0.000   |b| =    10.770930
 CELL_REF| Vector c [angstrom    -0.068     0.176    10.801   |c| =    10.802509
 CELL_REF| Angle (b,c), alpha [degree]:                                89.066154
 CELL_REF| Angle (a,c), beta  [degree]:                                90.362407
 CELL_REF| Angle (a,b), gamma [degree]:                                89.936699
 CELL_REF| Numerically orthorhombic:                                          NO
 CELL_REF| Periodicity                                                       XYZ

 *******************************************************************************
 *******************************************************************************
 **                                                                           **
 **     #####                         ##              ##                      **
 **    ##   ##            ##          ##              ##                      **
 **   ##     ##                       ##            ######                    **
 **   ##     ##  ##   ##  ##   #####  ##  ##   ####   ##    #####    #####    **
 **   ##     ##  ##   ##  ##  ##      ## ##   ##      ##   ##   ##  ##   ##   **
 **   ##  ## ##  ##   ##  ##  ##      ####     ###    ##   ######   ######    **
 **    ##  ###   ##   ##  ##  ##      ## ##      ##   ##   ##       ##        **
 **     #######   #####   ##   #####  ##  ##  ####    ##    #####   ##        **
 **           ##                                                    ##        **
 **                                                                           **
 **                                                ... make the atoms dance   **
 **                                                                           **
 **            Copyright (C) by CP2K developers group (2000-2024)             **
 **                      J. Chem. Phys. 152, 194103 (2020)                    **
 **                                                                           **
 *******************************************************************************

 DFT| Spin restricted Kohn-Sham (RKS) calculation                            RKS
 DFT| Multiplicity                                                             1
 DFT| Number of spin states                                                    1
 DFT| Charge                                                                   0
 DFT| Self-interaction correction (SIC)                                       NO
 DFT| Cutoffs: density                                              1.000000E-10
 DFT|          gradient                                             1.000000E-10
 DFT|          tau                                                  1.000000E-10
 DFT|          cutoff_smoothing_range                               0.000000E+00
 DFT| XC density smoothing                                                  NONE
 DFT| XC derivatives                                                          PW

 FUNCTIONAL| PBE:
 FUNCTIONAL| J.P.Perdew, K.Burke, M.Ernzerhof, Phys. Rev. Letter, vol. 77, n 18,
 FUNCTIONAL|  pp. 3865-3868, (1996) {spin unpolarized}                          


 QS| Method:                                                                 GPW
 QS| Density plane wave grid type                        NON-SPHERICAL FULLSPACE
 QS| Number of grid levels:                                                    4
 QS| Density cutoff [a.u.]:                                                150.0
 QS| Multi grid cutoff [a.u.]: 1) grid level                               150.0
 QS|                           2) grid level                                50.0
 QS|                           3) grid level                                16.7
 QS|                           4) grid level                                 5.6
 QS| Grid level progression factor:                                          3.0
 QS| Relative density cutoff [a.u.]:                                        20.0
 QS| Interaction thresholds: eps_pgf_orb:                                1.0E-05
 QS|                         eps_filter_matrix:                          0.0E+00
 QS|                         eps_core_charge:                            1.0E-12
 QS|                         eps_rho_gspace:                             1.0E-10
 QS|                         eps_rho_rspace:                             1.0E-10
 QS|                         eps_gvg_rspace:                             1.0E-05
 QS|                         eps_ppl:                                    1.0E-02
 QS|                         eps_ppnl:                                   1.0E-07


 ATOMIC KIND INFORMATION

  1. Atomic kind: Si                                    Number of atoms:      64

     Orbital Basis Set                                     DZVP-MOLOPT-SR-GTH-q4

       Number of orbital shell sets:                                           1
       Number of orbital shells:                                               5
       Number of primitive Cartesian functions:                                4
       Number of Cartesian basis functions:                                   14
       Number of spherical basis functions:                                   13
       Norm type:                                                              2

       Normalised Cartesian orbitals:

                        Set   Shell   Orbital            Exponent    Coefficient

                          1       1    2s                1.256768       0.294045
                                                         0.506394      -0.015884
                                                         0.238884      -0.207657
                                                         0.087337      -0.036225

                          1       2    3s                1.256768      -1.532347
                                                         0.506394       0.524539
                                                         0.238884       0.025013
                                                         0.087337      -0.052203

                          1       3    3px               1.256768       0.152274
                                                         0.506394      -0.154145
                                                         0.238884      -0.115581
                                                         0.087337      -0.028372
                          1       3    3py               1.256768       0.152274
                                                         0.506394      -0.154145
                                                         0.238884      -0.115581
                                                         0.087337      -0.028372
                          1       3    3pz               1.256768       0.152274
                                                         0.506394      -0.154145
                                                         0.238884      -0.115581
                                                         0.087337      -0.028372

                          1       4    4px               1.256768       0.313378
                                                         0.506394      -0.415360
                                                         0.238884      -0.022539
                                                         0.087337       0.078473
                          1       4    4py               1.256768       0.313378
                                                         0.506394      -0.415360
                                                         0.238884      -0.022539
                                                         0.087337       0.078473
                          1       4    4pz               1.256768       0.313378
                                                         0.506394      -0.415360
                                                         0.238884      -0.022539
                                                         0.087337       0.078473

                          1       5    4dx2              1.256768       0.325879
                                                         0.506394       0.163831
                                                         0.238884       0.044076
                                                         0.087337       0.010608
                          1       5    4dxy              1.256768       0.564439
                                                         0.506394       0.283764
                                                         0.238884       0.076342
                                                         0.087337       0.018373
                          1       5    4dxz              1.256768       0.564439
                                                         0.506394       0.283764
                                                         0.238884       0.076342
                                                         0.087337       0.018373
                          1       5    4dy2              1.256768       0.325879
                                                         0.506394       0.163831
                                                         0.238884       0.044076
                                                         0.087337       0.010608
                          1       5    4dyz              1.256768       0.564439
                                                         0.506394       0.283764
                                                         0.238884       0.076342
                                                         0.087337       0.018373
                          1       5    4dz2              1.256768       0.325879
                                                         0.506394       0.163831
                                                         0.238884       0.044076
                                                         0.087337       0.010608

       Atomic covalent radius [Angstrom]:                                  1.110

       Atomic van der Waals radius [Angstrom]:                             2.100

     GTH Potential information for                                       GTH-PBE

       Description:                       Goedecker-Teter-Hutter pseudopotential
                                           Goedecker et al., PRB 54, 1703 (1996)
                                          Hartwigsen et al., PRB 58, 3641 (1998)
                                                      Krack, TCA 114, 145 (2005)

       Gaussian exponent of the core charge distribution:               2.582645
       Electronic configuration (s p d ...):                               2   2

       Parameters of the local part of the GTH pseudopotential:

                          rloc        C1          C2          C3          C4
                        0.440000   -6.269288

       Parameters of the non-local part of the GTH pseudopotential:

                   l      r(l)      h(i,j,l)

                   0    0.435634    8.951742   -2.706271
                                   -2.706271    3.493781
                   1    0.497942    2.431277


 MOLECULE KIND INFORMATION


 All atoms are their own molecule, skipping detailed information


 TOTAL NUMBERS AND MAXIMUM NUMBERS

  Total number of            - Atomic kinds:                                   1
                             - Atoms:                                         64
                             - Shell sets:                                    64
                             - Shells:                                       320
                             - Primitive Cartesian functions:                256
                             - Cartesian basis functions:                    896
                             - Spherical basis functions:                    832

  Maximum angular momentum of- Orbital basis functions:                        2
                             - Local part of the GTH pseudopotential:          0
                             - Non-local part of the GTH pseudopotential:      2


 MODULE QUICKSTEP: ATOMIC COORDINATES IN ANGSTROM

   Atom Kind Element         X             Y             Z       Z(eff)     Mass
      1    1 Si   14      1.396972      4.065124      1.355291   4.0000  28.0855
      2    1 Si   14      4.154120      9.585704      9.440499   4.0000  28.0855
      3    1 Si   14      9.766416      4.113159      4.055281   4.0000  28.0855
      4    1 Si   14      9.736798      4.189133      9.452493   4.0000  28.0855
      5    1 Si   14      9.777969      9.492488      4.049753   4.0000  28.0855
      6    1 Si   14      9.736552      9.584421      9.450925   4.0000  28.0855
      7    1 Si   14      2.800890     -0.004755     -0.000363   4.0000  28.0855
      8    1 Si   14      2.758645      0.094467      5.401624   4.0000  28.0855
      9    1 Si   14      2.799251      5.383276      0.000759   4.0000  28.0855
     10    1 Si   14      2.765585      5.473571      5.400323   4.0000  28.0855
     11    1 Si   14      8.395291      0.002960     -0.000343   4.0000  28.0855
     12    1 Si   14      8.370479      0.088023      5.407035   4.0000  28.0855
     13    1 Si   14      8.399830      5.388431      0.004261   4.0000  28.0855
     14    1 Si   14      4.148394      4.195557      9.446912   4.0000  28.0855
     15    1 Si   14      4.174840      9.482647      4.050286   4.0000  28.0855
     16    1 Si   14      8.359533      5.475134      5.398006   4.0000  28.0855
     17    1 Si   14      4.201524      6.760168      1.345717   4.0000  28.0855
     18    1 Si   14      4.153922      6.842313      6.744693   4.0000  28.0855
     19    1 Si   14      9.791935      1.368431      1.344420   4.0000  28.0855
     20    1 Si   14      9.754533      1.461570      6.753050   4.0000  28.0855
     21    1 Si   14      9.790284      6.753372      1.344352   4.0000  28.0855
     22    1 Si   14      9.760912      6.839489      6.749531   4.0000  28.0855
     23    1 Si   14      2.777826      2.737388      2.704884   4.0000  28.0855
     24    1 Si   14      2.749413      2.839956      8.101349   4.0000  28.0855
     25    1 Si   14      2.779550      8.121383      2.695594   4.0000  28.0855
     26    1 Si   14      2.760636      8.212647      8.099399   4.0000  28.0855
     27    1 Si   14      8.382729      2.737286      2.703400   4.0000  28.0855
     28    1 Si   14      8.342358      2.829346      8.102992   4.0000  28.0855
     29    1 Si   14      4.184613      1.376506      1.348675   4.0000  28.0855
     30    1 Si   14      4.156403      1.466358      6.747131   4.0000  28.0855
     31    1 Si   14      4.173254      4.102030      4.046711   4.0000  28.0855
     32    1 Si   14      5.578484      8.165582      5.396801   4.0000  28.0855
     33    1 Si   14      5.600068      8.085867      0.008342   4.0000  28.0855
     34    1 Si   14      1.396592      9.444140      1.348570   4.0000  28.0855
     35    1 Si   14      1.370236      9.539728      6.750801   4.0000  28.0855
     36    1 Si   14      6.980786      4.059727      1.348691   4.0000  28.0855
     37    1 Si   14      6.966282      4.152130      6.745524   4.0000  28.0855
     38    1 Si   14      7.004811      9.441280      1.353810   4.0000  28.0855
     39    1 Si   14      6.964069      9.526088      6.743933   4.0000  28.0855
     40    1 Si   14     -0.010895      0.046797      2.698597   4.0000  28.0855
     41    1 Si   14     11.138842      0.132302      8.104127   4.0000  28.0855
     42    1 Si   14     -0.014646      5.437422      2.699203   4.0000  28.0855
     43    1 Si   14     -0.040756      5.519409      8.100374   4.0000  28.0855
     44    1 Si   14      5.583433      0.050386      2.709503   4.0000  28.0855
     45    1 Si   14      5.543318      0.128155      8.104835   4.0000  28.0855
     46    1 Si   14      5.576685      5.432830      2.703582   4.0000  28.0855
     47    1 Si   14      1.356020      4.139173      6.744875   4.0000  28.0855
     48    1 Si   14      5.561386      5.523651      8.104307   4.0000  28.0855
     49    1 Si   14      1.340298      1.500805      9.453783   4.0000  28.0855
     50    1 Si   14      1.372070      6.797774      4.051988   4.0000  28.0855
     51    1 Si   14      1.347783      6.888398      9.465126   4.0000  28.0855
     52    1 Si   14      6.975294      1.416631      4.052221   4.0000  28.0855
     53    1 Si   14      6.947810      1.495407      9.444845   4.0000  28.0855
     54    1 Si   14      6.977439      6.802190      4.047618   4.0000  28.0855
     55    1 Si   14      6.939320      6.883135      9.451337   4.0000  28.0855
     56    1 Si   14      0.005187      2.692452      0.003470   4.0000  28.0855
     57    1 Si   14     -0.030166      2.775314      5.403488   4.0000  28.0855
     58    1 Si   14     -0.003435      8.079122      0.004448   4.0000  28.0855
     59    1 Si   14     -0.023580      8.167345      5.395646   4.0000  28.0855
     60    1 Si   14      5.613806      2.691244     -0.011142   4.0000  28.0855
     61    1 Si   14      5.573422      2.784119      5.394482   4.0000  28.0855
     62    1 Si   14      1.373485      1.403889      4.054709   4.0000  28.0855
     63    1 Si   14      8.387517      8.134775      2.694198   4.0000  28.0855
     64    1 Si   14      8.351161      8.214349      8.101580   4.0000  28.0855



 SCF PARAMETERS         Density guess:                                    ATOMIC
                        --------------------------------------------------------
                        max_scf:                                             128
                        max_scf_history:                                       0
                        max_diis:                                              4
                        --------------------------------------------------------
                        eps_scf:                                        1.00E-05
                        eps_scf_history:                                0.00E+00
                        eps_diis:                                       1.00E-01
                        eps_eigval:                                     1.00E-05
                        --------------------------------------------------------
                        level_shift [a.u.]:                             0.000000
                        --------------------------------------------------------
                        Mixing method:                            BROYDEN_MIXING
                                                charge density mixing in g-space
                        --------------------------------------------------------
                        No outer SCF

 PW_GRID| Information for grid number                                          1
 PW_GRID| Grid distributed over                                    64 processors
 PW_GRID| Real space group dimensions                                    64    1
 PW_GRID| the grid is blocked:                                                NO
 PW_GRID| Cutoff [a.u.]                                                    150.0
 PW_GRID| spherical cutoff:                                                   NO
 PW_GRID|   Bounds   1            -60      59                Points:         120
 PW_GRID|   Bounds   2            -60      59                Points:         120
 PW_GRID|   Bounds   3            -60      59                Points:         120
 PW_GRID| Volume element (a.u.^3)  0.5086E-02     Volume (a.u.^3)      8789.4042
 PW_GRID| Grid span                                                    FULLSPACE
 PW_GRID|   Distribution                         Average         Max         Min
 PW_GRID|   G-Vectors                            27000.0       27000       27000
 PW_GRID|   G-Rays                                 225.0         225         225
 PW_GRID|   Real Space Points                    27000.0       28800       14400

 PW_GRID| Information for grid number                                          2
 PW_GRID| Number of the reference grid                                         1
 PW_GRID| Grid distributed over                                    64 processors
 PW_GRID| Real space group dimensions                                    64    1
 PW_GRID| the grid is blocked:                                                NO
 PW_GRID| Cutoff [a.u.]                                                     50.0
 PW_GRID| spherical cutoff:                                                   NO
 PW_GRID|   Bounds   1            -36      35                Points:          72
 PW_GRID|   Bounds   2            -36      35                Points:          72
 PW_GRID|   Bounds   3            -36      35                Points:          72
 PW_GRID| Volume element (a.u.^3)  0.2355E-01     Volume (a.u.^3)      8789.4042
 PW_GRID| Grid span                                                    FULLSPACE
 PW_GRID|   Distribution                         Average         Max         Min
 PW_GRID|   G-Vectors                             5832.0        5904        5760
 PW_GRID|   G-Rays                                  81.0          82          80
 PW_GRID|   Real Space Points                     5832.0       10368        5184

 PW_GRID| Information for grid number                                          3
 PW_GRID| Number of the reference grid                                         1
 PW_GRID| Grid distributed over                                    64 processors
 PW_GRID| Real space group dimensions                                     8    8
 PW_GRID| the grid is blocked:                                                NO
 PW_GRID| Cutoff [a.u.]                                                     16.7
 PW_GRID| spherical cutoff:                                                   NO
 PW_GRID|   Bounds   1            -20      19                Points:          40
 PW_GRID|   Bounds   2            -20      19                Points:          40
 PW_GRID|   Bounds   3            -20      19                Points:          40
 PW_GRID| Volume element (a.u.^3)  0.1373         Volume (a.u.^3)      8789.4042
 PW_GRID| Grid span                                                    FULLSPACE
 PW_GRID|   Distribution                         Average         Max         Min
 PW_GRID|   G-Vectors                             1000.0        1040         960
 PW_GRID|   G-Rays                                  25.0          26          24
 PW_GRID|   Real Space Points                     1000.0        1000        1000

 PW_GRID| Information for grid number                                          4
 PW_GRID| Number of the reference grid                                         1
 PW_GRID| Grid distributed over                                    64 processors
 PW_GRID| Real space group dimensions                                     8    8
 PW_GRID| the grid is blocked:                                                NO
 PW_GRID| Cutoff [a.u.]                                                      5.6
 PW_GRID| spherical cutoff:                                                   NO
 PW_GRID|   Bounds   1            -12      11                Points:          24
 PW_GRID|   Bounds   2            -12      11                Points:          24
 PW_GRID|   Bounds   3            -12      11                Points:          24
 PW_GRID| Volume element (a.u.^3)  0.6358         Volume (a.u.^3)      8789.4042
 PW_GRID| Grid span                                                    FULLSPACE
 PW_GRID|   Distribution                         Average         Max         Min
 PW_GRID|   G-Vectors                              216.0         240         192
 PW_GRID|   G-Rays                                   9.0          10           8
 PW_GRID|   Real Space Points                      216.0         216         216

 POISSON| Solver                                                        PERIODIC
 POISSON| Periodicity                                                        XYZ

 RS_GRID| Information for grid number                                          1
 RS_GRID|   Bounds   1            -60      59                Points:         120
 RS_GRID|   Bounds   2            -60      59                Points:         120
 RS_GRID|   Bounds   3            -60      59                Points:         120
 RS_GRID| Real space distribution over                                  4 groups
 RS_GRID| Real space distribution along direction                              1
 RS_GRID| Border size                                                         22
 RS_GRID| Real space distribution over                                  4 groups
 RS_GRID| Real space distribution along direction                              2
 RS_GRID| Border size                                                         22
 RS_GRID| Real space distribution over                                  4 groups
 RS_GRID| Real space distribution along direction                              3
 RS_GRID| Border size                                                         22
 RS_GRID|   Distribution                         Average         Max         Min
 RS_GRID|   Planes                                  74.0          74          74
 RS_GRID|   Distribution                         Average         Max         Min
 RS_GRID|   Planes                                  74.0          74          74
 RS_GRID|   Distribution                         Average         Max         Min
 RS_GRID|   Planes                                  74.0          74          74

 RS_GRID| Information for grid number                                          2
 RS_GRID|   Bounds   1            -36      35                Points:          72
 RS_GRID|   Bounds   2            -36      35                Points:          72
 RS_GRID|   Bounds   3            -36      35                Points:          72
 RS_GRID| Real space fully replicated
 RS_GRID| Group size                                                           1

 RS_GRID| Information for grid number                                          3
 RS_GRID|   Bounds   1            -20      19                Points:          40
 RS_GRID|   Bounds   2            -20      19                Points:          40
 RS_GRID|   Bounds   3            -20      19                Points:          40
 RS_GRID| Real space fully replicated
 RS_GRID| Group size                                                           1

 RS_GRID| Information for grid number                                          4
 RS_GRID|   Bounds   1            -12      11                Points:          24
 RS_GRID|   Bounds   2            -12      11                Points:          24
 RS_GRID|   Bounds   3            -12      11                Points:          24
 RS_GRID| Real space fully replicated
 RS_GRID| Group size                                                           1

 MD_PAR| Molecular dynamics protocol (MD input parameters)
 MD_PAR| Ensemble type                                                       NVT
 MD_PAR| Number of time steps                                                 50
 MD_PAR| Time step [fs]                                                 1.000000
 MD_PAR| Temperature [K]                                              298.150000
 MD_PAR| Temperature tolerance [K]                                      0.000000
 MD_PAR| Print MD information every                                    1 step(s)
 MD_PAR| File type   Print frequency [steps]                          File names
 MD_PAR| Coordinates          1                                CP2K_MD-pos-1.xyz
 MD_PAR| Velocities           0                                CP2K_MD-vel-1.xyz
 MD_PAR| Energies             1                                   CP2K_MD-1.ener
 MD_PAR| Dump                 1                                CP2K_MD-1.restart

 ROT| Rotational analysis information
 ROT| Principal axes and moments of inertia [a.u.]
 ROT|                           1                   2                   3
 ROT| Eigenvalues      2.15917912192E+08   2.29350562875E+08   2.47011170449E+08
 ROT|      x             -0.833840882482     -0.326538905476     -0.445063732417
 ROT|      y             -0.036551329357      0.837159722452     -0.545735833005
 ROT|      z             -0.550793412292      0.438789177527      0.709993432830
 ROT| Number of rotovibrational vectors                                        6

 DOF| Calculation of degrees of freedom
 DOF| Number of atoms                                                         64
 DOF| Number of intramolecular constraints                                     0
 DOF| Number of intermolecular constraints                                     0
 DOF| Invariants (translations + rotations)                                    3
 DOF| Degrees of freedom                                                     189

 DOF| Restraints information
 DOF| Number of intramolecular restraints                                      0
 DOF| Number of intermolecular restraints                                      0

 THERMOSTAT| Thermostat information for PARTICLES
 THERMOSTAT| Type of thermostat            Canonical Sampling/Velocity Rescaling
 THERMOSTAT| CSVR time constant [fs]                                  200.000000
 THERMOSTAT| Initial kinetic energy                           0.000000000000E+00
 THERMOSTAT| End of thermostat information for PARTICLES

 MD_VEL| Velocities initialization
 MD_VEL| Initial temperature [K]                                      298.150000
 MD_VEL| COM velocity             0.0000000000     0.0000000000     0.0000000000

 Number of electrons:                                                        256
 Number of occupied orbitals:                                                128
 Number of molecular orbitals:                                               128

 Number of orbital functions:                                                832
 Number of independent orbital functions:                                    832

 Extrapolation method: initial_guess

 Atomic guess: The first density matrix is obtained in terms of atomic orbitals
               and electronic configurations assigned to each atomic kind

 Guess for atomic kind: Si

 Electronic structure
    Total number of core electrons                                         10.00
    Total number of valence electrons                                       4.00
    Total number of electrons                                              14.00
    Multiplicity                                                   not specified
    S   [  2.00  2.00] 2.00
    P   [  6.00] 2.00


 *******************************************************************************
                  Iteration          Convergence                     Energy [au]
 *******************************************************************************
                          1        0.526541E-01                  -3.659692963728
                          2        0.125823E-01                  -3.661785675622
                          3        0.408986E-04                  -3.661911567360
                          4        0.675570E-07                  -3.661911568709

 Energy components [Hartree]           Total Energy ::           -3.661911568709
                                        Band Energy ::           -0.941881516273
                                     Kinetic Energy ::            1.409736465412
                                   Potential Energy ::           -5.071648034121
                                      Virial (-V/T) ::            3.597585902439
                                        Core Energy ::           -5.690149137281
                                          XC Energy ::           -0.992569238249
                                     Coulomb Energy ::            3.020806806821
                       Total Pseudopotential Energy ::           -7.143143335066
                       Local Pseudopotential Energy ::           -8.006124475851
                    Nonlocal Pseudopotential Energy ::            0.862981140786
                                        Confinement ::            0.432577323720

 Orbital energies  State     L     Occupation   Energy[a.u.]          Energy[eV]

                       1     0          2.000      -0.357276           -9.721984

                       1     1          2.000      -0.113664           -3.092965


 Total Electron Density at R=0:                                         0.000026
 Re-scaling the density matrix to get the right number of electrons
                  # Electrons              Trace(P)               Scaling factor
                          256               256.000                        1.000


 SCF WAVEFUNCTION OPTIMIZATION

  Step     Update method      Time    Convergence         Total energy    Change
  ------------------------------------------------------------------------------

 *** WARNING in fm/cp_fm_elpa.F:522 :: Setting real_kernel for ELPA failed ***

     1 NoMix/Diag. 0.40E+00    0.5     1.08455432      -254.2619090791 -2.54E+02

 *** WARNING in fm/cp_fm_elpa.F:522 :: Setting real_kernel for ELPA failed ***

     2 Broy./Diag. 0.40E+00    0.2     0.01624794      -252.5709562593  1.69E+00

 *** WARNING in fm/cp_fm_elpa.F:522 :: Setting real_kernel for ELPA failed ***

     3 Broy./Diag. 0.40E+00    0.2     0.02352108      -251.2422810285  1.33E+00

 *** WARNING in fm/cp_fm_elpa.F:522 :: Setting real_kernel for ELPA failed ***

     4 Broy./Diag. 0.40E+00    0.2     0.00071257      -251.9688059888 -7.27E-01

 *** WARNING in fm/cp_fm_elpa.F:522 :: Setting real_kernel for ELPA failed ***

     5 Broy./Diag. 0.40E+00    0.2     0.00075798      -251.7083593614  2.60E-01

 *** WARNING in fm/cp_fm_elpa.F:522 :: Setting real_kernel for ELPA failed ***

     6 Broy./Diag. 0.40E+00    0.3     0.00006396      -251.6681134557  4.02E-02

 *** WARNING in fm/cp_fm_elpa.F:522 :: Setting real_kernel for ELPA failed ***

     7 Broy./Diag. 0.40E+00    0.2     0.00002907      -251.6690136036 -9.00E-04

 *** WARNING in fm/cp_fm_elpa.F:522 :: Setting real_kernel for ELPA failed ***

     8 Broy./Diag. 0.40E+00    0.2     0.00001680      -251.6706450927 -1.63E-03

 *** WARNING in fm/cp_fm_elpa.F:522 :: Setting real_kernel for ELPA failed ***

     9 Broy./Diag. 0.40E+00    0.2     0.00000369      -251.6713360645 -6.91E-04

  *** SCF run converged in     9 steps ***


  Electronic density on regular grids:       -255.9999999998        0.0000000002
  Core density on regular grids:              255.9999999500       -0.0000000500
  Total charge density on r-space grids:       -0.0000000499
  Total charge density g-space grids:          -0.0000000499

  Overlap energy of the core charge distribution:               0.00000000033081
  Self energy of the core charge distribution:               -656.51151540102558
  Core Hamiltonian energy:                                    138.19861480860061
  Hartree energy:                                             343.63066726574215
  Exchange-correlation energy:                                -76.98910273812993

  Total energy:                                              -251.67133606448192

 !-----------------------------------------------------------------------------!
                     Mulliken Population Analysis

 #  Atom  Element  Kind  Atomic population                           Net charge
       1     Si       1          4.000467                             -0.000467
       2     Si       1          4.002038                             -0.002038
       3     Si       1          3.998880                              0.001120
       4     Si       1          3.998604                              0.001396
       5     Si       1          3.999693                              0.000307
       6     Si       1          4.000901                             -0.000901
       7     Si       1          3.999626                              0.000374
       8     Si       1          4.000846                             -0.000846
       9     Si       1          3.999975                              0.000025
      10     Si       1          3.999757                              0.000243
      11     Si       1          4.000829                             -0.000829
      12     Si       1          3.999522                              0.000478
      13     Si       1          3.999813                              0.000187
      14     Si       1          3.999837                              0.000163
      15     Si       1          3.998128                              0.001872
      16     Si       1          4.001731                             -0.001731
      17     Si       1          4.000289                             -0.000289
      18     Si       1          3.999278                              0.000722
      19     Si       1          3.999955                              0.000045
      20     Si       1          4.000409                             -0.000409
      21     Si       1          4.001335                             -0.001335
      22     Si       1          3.998625                              0.001375
      23     Si       1          4.000830                             -0.000830
      24     Si       1          4.000161                             -0.000161
      25     Si       1          3.999695                              0.000305
      26     Si       1          3.999746                              0.000254
      27     Si       1          3.998938                              0.001062
      28     Si       1          4.000987                             -0.000987
      29     Si       1          3.998015                              0.001985
      30     Si       1          3.998265                              0.001735
      31     Si       1          4.000204                             -0.000204
      32     Si       1          4.000932                             -0.000932
      33     Si       1          3.999811                              0.000189
      34     Si       1          4.000800                             -0.000800
      35     Si       1          3.999444                              0.000556
      36     Si       1          3.999103                              0.000897
      37     Si       1          4.000587                             -0.000587
      38     Si       1          4.000755                             -0.000755
      39     Si       1          4.000049                             -0.000049
      40     Si       1          3.999925                              0.000075
      41     Si       1          3.999698                              0.000302
      42     Si       1          4.000018                             -0.000018
      43     Si       1          3.998501                              0.001499
      44     Si       1          3.997722                              0.002278
      45     Si       1          4.000075                             -0.000075
      46     Si       1          4.000261                             -0.000261
      47     Si       1          4.001313                             -0.001313
      48     Si       1          3.999923                              0.000077
      49     Si       1          3.998703                              0.001297
      50     Si       1          4.001151                             -0.001151
      51     Si       1          3.999452                              0.000548
      52     Si       1          4.001151                             -0.001151
      53     Si       1          4.001519                             -0.001519
      54     Si       1          3.999733                              0.000267
      55     Si       1          3.999687                              0.000313
      56     Si       1          4.000262                             -0.000262
      57     Si       1          4.000138                             -0.000138
      58     Si       1          4.000023                             -0.000023
      59     Si       1          3.999653                              0.000347
      60     Si       1          3.999962                              0.000038
      61     Si       1          4.000343                             -0.000343
      62     Si       1          4.001611                             -0.001611
      63     Si       1          4.000736                             -0.000736
      64     Si       1          3.999580                              0.000420
 # Total charge                            256.000000                 -0.000000

 !-----------------------------------------------------------------------------!

 !-----------------------------------------------------------------------------!
                           Hirshfeld Charges

  #Atom  Element  Kind  Ref Charge     Population                    Net charge
      1       Si     1       4.000          3.999                         0.001
      2       Si     1       4.000          3.999                         0.001
      3       Si     1       4.000          4.000                        -0.000
      4       Si     1       4.000          4.001                        -0.001
      5       Si     1       4.000          4.000                         0.000
      6       Si     1       4.000          4.000                         0.000
      7       Si     1       4.000          4.000                        -0.000
      8       Si     1       4.000          4.000                         0.000
      9       Si     1       4.000          4.000                         0.000
     10       Si     1       4.000          4.000                         0.000
     11       Si     1       4.000          3.999                         0.001
     12       Si     1       4.000          4.000                        -0.000
     13       Si     1       4.000          4.000                        -0.000
     14       Si     1       4.000          4.000                        -0.000
     15       Si     1       4.000          4.001                        -0.001
     16       Si     1       4.000          3.999                         0.001
     17       Si     1       4.000          4.000                        -0.000
     18       Si     1       4.000          4.000                        -0.000
     19       Si     1       4.000          4.000                        -0.000
     20       Si     1       4.000          4.000                        -0.000
     21       Si     1       4.000          3.999                         0.001
     22       Si     1       4.000          4.001                        -0.001
     23       Si     1       4.000          3.999                         0.001
     24       Si     1       4.000          4.000                        -0.000
     25       Si     1       4.000          4.001                        -0.001
     26       Si     1       4.000          4.000                         0.000
     27       Si     1       4.000          4.001                        -0.001
     28       Si     1       4.000          3.999                         0.001
     29       Si     1       4.000          4.001                        -0.001
     30       Si     1       4.000          4.001                        -0.001
     31       Si     1       4.000          4.000                         0.000
     32       Si     1       4.000          3.999                         0.001
     33       Si     1       4.000          4.000                         0.000
     34       Si     1       4.000          3.999                         0.001
     35       Si     1       4.000          4.000                        -0.000
     36       Si     1       4.000          4.001                        -0.001
     37       Si     1       4.000          3.999                         0.001
     38       Si     1       4.000          3.999                         0.001
     39       Si     1       4.000          4.000                         0.000
     40       Si     1       4.000          4.000                        -0.000
     41       Si     1       4.000          4.001                        -0.001
     42       Si     1       4.000          4.000                        -0.000
     43       Si     1       4.000          4.002                        -0.002
     44       Si     1       4.000          4.002                        -0.002
     45       Si     1       4.000          4.000                         0.000
     46       Si     1       4.000          4.000                        -0.000
     47       Si     1       4.000          4.000                         0.000
     48       Si     1       4.000          4.001                        -0.001
     49       Si     1       4.000          4.001                        -0.001
     50       Si     1       4.000          4.000                         0.000
     51       Si     1       4.000          4.000                         0.000
     52       Si     1       4.000          4.000                         0.000
     53       Si     1       4.000          3.998                         0.002
     54       Si     1       4.000          3.999                         0.001
     55       Si     1       4.000          4.001                        -0.001
     56       Si     1       4.000          4.000                        -0.000
     57       Si     1       4.000          3.999                         0.001
     58       Si     1       4.000          3.999                         0.001
     59       Si     1       4.000          4.000                        -0.000
     60       Si     1       4.000          4.000                         0.000
     61       Si     1       4.000          3.999                         0.001
     62       Si     1       4.000          3.998                         0.002
     63       Si     1       4.000          3.999                         0.001
     64       Si     1       4.000          4.001                        -0.001

  Total Charge                                                           -0.000
 !-----------------------------------------------------------------------------!

 ENERGY| Total FORCE_EVAL ( QS ) energy [a.u.]:             -251.671533806928323

 STRESS| Analytical stress tensor [GPa]
 STRESS|                        x                   y                   z
 STRESS|      x       -1.62466875285E+00  -6.40242629631E-02   7.07170503206E-01
 STRESS|      y       -6.40242629631E-02   2.28139666442E+00  -1.67942852042E+00
 STRESS|      z        7.07170503206E-01  -1.67942852042E+00   2.09525872924E+00
 STRESS| 1/3 Trace                                             9.17328880270E-01
 STRESS| Determinant                                          -4.18117634625E+00

 STRESS| Eigenvectors and eigenvalues of the analytical stress tensor [GPa]
 STRESS|                        1                   2                   3
 STRESS| Eigenvalues  -1.77176982947E+00   6.01695628676E-01   3.92206084161E+00
 STRESS|      x           0.975242042092      0.198889724228     -0.096673868924
 STRESS|      y          -0.071327183532      0.696704626648      0.713803261478
 STRESS|      z          -0.209321265584      0.689235475585     -0.693641886689

 MD_INI| MD initialization
 MD_INI| Potential energy [hartree]                          -0.251671533807E+03
 MD_INI| Kinetic energy [hartree]                             0.892255764898E-01
 MD_INI| Temperature [K]                                              298.150000
 MD_INI| Pressure [bar]                                       1.116440340074E+04
 MD_INI| Cell volume [bohr^3]                                 8.789404192923E+03
 MD_INI| Cell volume [ang^3]                                  1.302455307262E+03
 MD_INI| Cell lengths [bohr]      2.11568282E+01  2.03541072E+01  2.04137839E+01
 MD_INI| Cell lengths [ang]       1.11957113E+01  1.07709296E+01  1.08025092E+01
 MD_INI| Cell angles [deg]        8.90661536E+01  9.03624066E+01  8.99366986E+01

 Number of electrons:                                                        256
 Number of occupied orbitals:                                                128
 Number of molecular orbitals:                                               128

 Number of orbital functions:                                                832
 Number of independent orbital functions:                                    832

 Parameters for the always stable predictor-corrector (ASPC) method:

  ASPC order: 0

  B(1) =   1.000000

 Extrapolation method: ASPC


 SCF WAVEFUNCTION OPTIMIZATION

  Step     Update method      Time    Convergence         Total energy    Change
  ------------------------------------------------------------------------------

 *** WARNING in fm/cp_fm_elpa.F:522 :: Setting real_kernel for ELPA failed ***

     1 Broy./Diag. 0.40E+00    0.2     0.00318086      -251.6708204856 -2.52E+02

 *** WARNING in fm/cp_fm_elpa.F:522 :: Setting real_kernel for ELPA failed ***

     2 Broy./Diag. 0.40E+00    0.2     0.00186318      -251.6709495526 -1.29E-04

 *** WARNING in fm/cp_fm_elpa.F:522 :: Setting real_kernel for ELPA failed ***

     3 Broy./Diag. 0.40E+00    0.2     0.00047830      -251.6710649925 -1.15E-04

 *** WARNING in fm/cp_fm_elpa.F:522 :: Setting real_kernel for ELPA failed ***

     4 Broy./Diag. 0.40E+00    0.2     0.00009786      -251.6710838074 -1.88E-05

 *** WARNING in fm/cp_fm_elpa.F:522 :: Setting real_kernel for ELPA failed ***

     5 Broy./Diag. 0.40E+00    0.2     0.00002901      -251.6710750913  8.72E-06

 *** WARNING in fm/cp_fm_elpa.F:522 :: Setting real_kernel for ELPA failed ***

     6 Broy./Diag. 0.40E+00    0.2     0.00000651      -251.6710711428  3.95E-06

  *** SCF run converged in     6 steps ***


  Electronic density on regular grids:       -255.9999999998        0.0000000002
  Core density on regular grids:              255.9999999501       -0.0000000499
  Total charge density on r-space grids:       -0.0000000497
  Total charge density g-space grids:          -0.0000000497

  Overlap energy of the core charge distribution:               0.00000000033287
  Self energy of the core charge distribution:               -656.51151540102558
  Core Hamiltonian energy:                                    138.19943935246044
  Hartree energy:                                             343.63020484816661
  Exchange-correlation energy:                                -76.98919994269940

  Total energy:                                              -251.67107114276504

 !-----------------------------------------------------------------------------!
                     Mulliken Population Analysis

 #  Atom  Element  Kind  Atomic population                           Net charge
       1     Si       1          3.999661                              0.000339
       2     Si       1          4.002873                             -0.002873
       3     Si       1          3.999199                              0.000801
       4     Si       1          3.999105                              0.000895
       5     Si       1          3.999556                              0.000444
       6     Si       1          4.000159                             -0.000159
       7     Si       1          3.999197                              0.000803
       8     Si       1          4.002158                             -0.002158
       9     Si       1          4.000559                             -0.000559
      10     Si       1          4.000937                             -0.000937
      11     Si       1          4.000592                             -0.000592
      12     Si       1          3.999612                              0.000388
      13     Si       1          3.997886                              0.002114
      14     Si       1          3.998658                              0.001342
      15     Si       1          3.997986                              0.002014
      16     Si       1          4.001771                             -0.001771
      17     Si       1          3.999513                              0.000487
      18     Si       1          3.999360                              0.000640
      19     Si       1          4.000711                             -0.000711
      20     Si       1          4.000715                             -0.000715
      21     Si       1          4.001473                             -0.001473
      22     Si       1          3.999886                              0.000114
      23     Si       1          4.001290                             -0.001290
      24     Si       1          3.999937                              0.000063
      25     Si       1          3.999287                              0.000713
      26     Si       1          4.000009                             -0.000009
      27     Si       1          3.999097                              0.000903
      28     Si       1          4.000882                             -0.000882
      29     Si       1          3.998099                              0.001901
      30     Si       1          3.997298                              0.002702
      31     Si       1          3.999920                              0.000080
      32     Si       1          4.000631                             -0.000631
      33     Si       1          3.998890                              0.001110
      34     Si       1          4.001580                             -0.001580
      35     Si       1          3.999760                              0.000240
      36     Si       1          3.998541                              0.001459
      37     Si       1          4.000267                             -0.000267
      38     Si       1          4.001813                             -0.001813
      39     Si       1          3.999930                              0.000070
      40     Si       1          3.999702                              0.000298
      41     Si       1          3.999124                              0.000876
      42     Si       1          3.999950                              0.000050
      43     Si       1          3.997622                              0.002378
      44     Si       1          3.998122                              0.001878
      45     Si       1          3.999244                              0.000756
      46     Si       1          4.001171                             -0.001171
      47     Si       1          4.001365                             -0.001365
      48     Si       1          4.000664                             -0.000664
      49     Si       1          3.998731                              0.001269
      50     Si       1          4.000875                             -0.000875
      51     Si       1          3.999852                              0.000148
      52     Si       1          4.000575                             -0.000575
      53     Si       1          4.001812                             -0.001812
      54     Si       1          3.998696                              0.001304
      55     Si       1          4.000697                             -0.000697
      56     Si       1          4.001117                             -0.001117
      57     Si       1          3.999740                              0.000260
      58     Si       1          4.000330                             -0.000330
      59     Si       1          3.999352                              0.000648
      60     Si       1          4.000570                             -0.000570
      61     Si       1          4.000662                             -0.000662
      62     Si       1          4.001269                             -0.001269
      63     Si       1          4.000461                             -0.000461
      64     Si       1          3.999497                              0.000503
 # Total charge                            256.000000                 -0.000000

 !-----------------------------------------------------------------------------!

 !-----------------------------------------------------------------------------!
                           Hirshfeld Charges

  #Atom  Element  Kind  Ref Charge     Population                    Net charge
      1       Si     1       4.000          3.999                         0.001
      2       Si     1       4.000          3.998                         0.002
      3       Si     1       4.000          4.001                        -0.001
      4       Si     1       4.000          4.001                        -0.001
      5       Si     1       4.000          4.000                        -0.000
      6       Si     1       4.000          4.000                         0.000
      7       Si     1       4.000          4.001                        -0.001
      8       Si     1       4.000          3.999                         0.001
      9       Si     1       4.000          3.999                         0.001
     10       Si     1       4.000          3.999                         0.001
     11       Si     1       4.000          3.999                         0.001
     12       Si     1       4.000          4.000                        -0.000
     13       Si     1       4.000          4.001                        -0.001
     14       Si     1       4.000          4.001                        -0.001
     15       Si     1       4.000          4.002                        -0.002
     16       Si     1       4.000          3.998                         0.002
     17       Si     1       4.000          4.001                        -0.001
     18       Si     1       4.000          4.000                        -0.000
     19       Si     1       4.000          4.000                         0.000
     20       Si     1       4.000          4.000                         0.000
     21       Si     1       4.000          3.999                         0.001
     22       Si     1       4.000          4.001                        -0.001
     23       Si     1       4.000          3.999                         0.001
     24       Si     1       4.000          4.001                        -0.001
     25       Si     1       4.000          4.001                        -0.001
     26       Si     1       4.000          3.999                         0.001
     27       Si     1       4.000          4.001                        -0.001
     28       Si     1       4.000          3.999                         0.001
     29       Si     1       4.000          4.001                        -0.001
     30       Si     1       4.000          4.002                        -0.002
     31       Si     1       4.000          4.000                         0.000
     32       Si     1       4.000          4.000                         0.000
     33       Si     1       4.000          4.000                        -0.000
     34       Si     1       4.000          3.999                         0.001
     35       Si     1       4.000          4.000                         0.000
     36       Si     1       4.000          4.001                        -0.001
     37       Si     1       4.000          3.999                         0.001
     38       Si     1       4.000          3.998                         0.002
     39       Si     1       4.000          4.000                         0.000
     40       Si     1       4.000          4.000                        -0.000
     41       Si     1       4.000          4.001                        -0.001
     42       Si     1       4.000          4.000                        -0.000
     43       Si     1       4.000          4.002                        -0.002
     44       Si     1       4.000          4.002                        -0.002
     45       Si     1       4.000          4.000                        -0.000
     46       Si     1       4.000          4.000                         0.000
     47       Si     1       4.000          4.000                         0.000
     48       Si     1       4.000          4.000                        -0.000
     49       Si     1       4.000          4.001                        -0.001
     50       Si     1       4.000          4.000                         0.000
     51       Si     1       4.000          3.999                         0.001
     52       Si     1       4.000          4.000                        -0.000
     53       Si     1       4.000          3.998                         0.002
     54       Si     1       4.000          4.000                        -0.000
     55       Si     1       4.000          4.000                        -0.000
     56       Si     1       4.000          4.000                         0.000
     57       Si     1       4.000          3.999                         0.001
     58       Si     1       4.000          3.999                         0.001
     59       Si     1       4.000          4.000                        -0.000
     60       Si     1       4.000          4.000                         0.000
     61       Si     1       4.000          3.999                         0.001
     62       Si     1       4.000          3.999                         0.001
     63       Si     1       4.000          3.999                         0.001
     64       Si     1       4.000          4.001                        -0.001

  Total Charge                                                           -0.000
 !-----------------------------------------------------------------------------!

 ENERGY| Total FORCE_EVAL ( QS ) energy [a.u.]:             -251.671068939488663

 STRESS| Analytical stress tensor [GPa]
 STRESS|                        x                   y                   z
 STRESS|      x       -1.62236005407E+00  -7.48432160023E-02   7.17924044566E-01
 STRESS|      y       -7.48432160023E-02   2.28448703848E+00  -1.68169012945E+00
 STRESS|      z        7.17924044566E-01  -1.68169012945E+00   2.09817407583E+00
 STRESS| 1/3 Trace                                             9.20100353412E-01
 STRESS| Determinant                                          -4.19670434966E+00

 STRESS| Eigenvectors and eigenvalues of the analytical stress tensor [GPa]
 STRESS|                        1                   2                   3
 STRESS| Eigenvalues  -1.77241968752E+00   6.02447267118E-01   3.93027348063E+00
 STRESS|      x           0.975004204602      0.198757370712     -0.099309156663
 STRESS|      y          -0.069493735376      0.697335778690      0.713367669930
 STRESS|      z          -0.211038910519      0.688635113355     -0.693717708366

 MD_VEL| Centre of mass motion (COM)
 MD_VEL| VCOM [a.u.]             -0.0000000000     0.0000000000    -0.0000000000

 MD| ***************************************************************************
 MD| Step number                                                               1
 MD| Time [fs]                                                          1.000000
 MD| Conserved quantity [hartree]                            -0.251582307389E+03
 MD| ---------------------------------------------------------------------------
 MD|                                          Instantaneous             Averages
 MD| CPU time per MD step [s]                      5.345483             5.345483
 MD| Energy drift per atom [K]           0.415325549835E-02   0.000000000000E+00
 MD| Potential energy [hartree]         -0.251671068939E+03  -0.251671068939E+03
 MD| Kinetic energy [hartree]            0.883362414273E-01   0.883362414273E-01
 MD| Temperature [K]                             295.178260           295.178260
 MD| Pressure [bar]                      1.117227216315E+04   1.117227216315E+04
 MD| ***************************************************************************
 MD| Estimated peak process memory after this step [MiB]                     200

 Number of electrons:                                                        256
 Number of occupied orbitals:                                                128
 Number of molecular orbitals:                                               128

 Number of orbital functions:                                                832
 Number of independent orbital functions:                                    832

 Parameters for the always stable predictor-corrector (ASPC) method:

  ASPC order: 0

  B(1) =   2.000000
  B(2) =  -1.000000

 Extrapolation method: ASPC


 SCF WAVEFUNCTION OPTIMIZATION

  Step     Update method      Time    Convergence         Total energy    Change
  ------------------------------------------------------------------------------

 *** WARNING in fm/cp_fm_elpa.F:522 :: Setting real_kernel for ELPA failed ***

     1 Broy./Diag. 0.40E+00    0.2     0.00005729      -251.6698551376 -2.52E+02

 *** WARNING in fm/cp_fm_elpa.F:522 :: Setting real_kernel for ELPA failed ***

     2 Broy./Diag. 0.40E+00    0.2     0.00002722      -251.6699977499 -1.43E-04

 *** WARNING in fm/cp_fm_elpa.F:522 :: Setting real_kernel for ELPA failed ***

     3 Broy./Diag. 0.40E+00    0.2     0.00000729      -251.6699180753  7.97E-05

  *** SCF run converged in     3 steps ***


  Electronic density on regular grids:       -255.9999999998        0.0000000002
  Core density on regular grids:              255.9999999504       -0.0000000496
  Total charge density on r-space grids:       -0.0000000494
  Total charge density g-space grids:          -0.0000000494

  Overlap energy of the core charge distribution:               0.00000000033757
  Self energy of the core charge distribution:               -656.51151540102558
  Core Hamiltonian energy:                                    138.20129250433459
  Hartree energy:                                             343.62961447042494
  Exchange-correlation energy:                                -76.98930964937313

  Total energy:                                              -251.66991807530167

 !-----------------------------------------------------------------------------!
                     Mulliken Population Analysis

 #  Atom  Element  Kind  Atomic population                           Net charge
       1     Si       1          3.998852                              0.001148
       2     Si       1          4.003704                             -0.003704
       3     Si       1          3.999508                              0.000492
       4     Si       1          3.999592                              0.000408
       5     Si       1          3.999418                              0.000582
       6     Si       1          3.999418                              0.000582
       7     Si       1          3.998762                              0.001238
       8     Si       1          4.003442                             -0.003442
       9     Si       1          4.001112                             -0.001112
      10     Si       1          4.002090                             -0.002090
      11     Si       1          4.000348                             -0.000348
      12     Si       1          3.999712                              0.000288
      13     Si       1          3.996001                              0.003999
      14     Si       1          3.997498                              0.002502
      15     Si       1          3.997846                              0.002154
      16     Si       1          4.001790                             -0.001790
      17     Si       1          3.998723                              0.001277
      18     Si       1          3.999459                              0.000541
      19     Si       1          4.001456                             -0.001456
      20     Si       1          4.001010                             -0.001010
      21     Si       1          4.001586                             -0.001586
      22     Si       1          4.001123                             -0.001123
      23     Si       1          4.001735                             -0.001735
      24     Si       1          3.999697                              0.000303
      25     Si       1          3.998883                              0.001117
      26     Si       1          4.000256                             -0.000256
      27     Si       1          3.999264                              0.000736
      28     Si       1          4.000816                             -0.000816
      29     Si       1          3.998187                              0.001813
      30     Si       1          3.996358                              0.003642
      31     Si       1          3.999654                              0.000346
      32     Si       1          4.000327                             -0.000327
      33     Si       1          3.997960                              0.002040
      34     Si       1          4.002352                             -0.002352
      35     Si       1          4.000072                             -0.000072
      36     Si       1          3.998004                              0.001996
      37     Si       1          3.999930                              0.000070
      38     Si       1          4.002878                             -0.002878
      39     Si       1          3.999818                              0.000182
[...]
     59       Si     1       4.000          3.998                         0.002
     60       Si     1       4.000          4.004                        -0.004
     61       Si     1       4.000          4.011                        -0.011
     62       Si     1       4.000          3.997                         0.003
     63       Si     1       4.000          4.000                        -0.000
     64       Si     1       4.000          3.995                         0.005

  Total Charge                                                           -0.000
 !-----------------------------------------------------------------------------!

 ENERGY| Total FORCE_EVAL ( QS ) energy [a.u.]:             -251.599167836714656

 STRESS| Analytical stress tensor [GPa]
 STRESS|                        x                   y                   z
 STRESS|      x       -1.63396282629E+00   4.29327413977E-02   4.55456963413E-01
 STRESS|      y        4.29327413977E-02   2.02725056793E+00  -1.29606775402E+00
 STRESS|      z        4.55456963413E-01  -1.29606775402E+00   1.91924441896E+00
 STRESS| 1/3 Trace                                             7.70844053534E-01
 STRESS| Determinant                                          -4.08744730274E+00

 STRESS| Eigenvectors and eigenvalues of the analytical stress tensor [GPa]
 STRESS|                        1                   2                   3
 STRESS| Eigenvalues  -1.70417936064E+00   7.29681195973E-01   3.28703032527E+00
 STRESS|      x           0.987277048575      0.147953997362     -0.058254991386
 STRESS|      y          -0.062190007719      0.696464736035      0.714891092684
 STRESS|      z          -0.146343542040      0.702172689674     -0.696804909267

 MD_VEL| Centre of mass motion (COM)
 MD_VEL| VCOM [a.u.]              0.0000000003    -0.0000000002     0.0000000001

 MD| ***************************************************************************
 MD| Step number                                                              50
 MD| Time [fs]                                                         50.000000
 MD| Conserved quantity [hartree]                            -0.251582234875E+03
 MD| ---------------------------------------------------------------------------
 MD|                                          Instantaneous             Averages
 MD| CPU time per MD step [s]                      1.309084             1.452066
 MD| Energy drift per atom [K]           0.361933607751E+00   0.252993330727E+00
 MD| Potential energy [hartree]         -0.251599167837E+03  -0.251624575726E+03
 MD| Kinetic energy [hartree]            0.361043925124E-01   0.540248219660E-01
 MD| Temperature [K]                             120.643935           180.525599
 MD| Pressure [bar]                      8.514128610583E+03   1.040765736991E+04
 MD| ***************************************************************************
 MD| Estimated peak process memory after this step [MiB]                     204

 -------------------------------------------------------------------------------
 -                                                                             -
 -                                DBCSR STATISTICS                             -
 -                                                                             -
 -------------------------------------------------------------------------------
 COUNTER                                    TOTAL       BLAS       SMM       ACC
 flops    13 x    13 x    32          24747008000       0.0%    100.0%      0.0%     
 flops    13 x    32 x    13          33669775360       0.0%    100.0%      0.0%     
 flops inhomo. stacks                           0       0.0%      0.0%      0.0%
 flops total                        58.416783E+09       0.0%    100.0%      0.0%
 flops max/rank                      1.480494E+09       0.0%    100.0%      0.0%
 matmuls inhomo. stacks                         0       0.0%      0.0%      0.0%
 matmuls total                            5400960       0.0%    100.0%      0.0%
 number of processed stacks                119040       0.0%    100.0%      0.0%
 average stack size                                     0.0      45.4       0.0
 marketing flops                    82.402345E+09
 -------------------------------------------------------------------------------
 # multiplications                            465
 max memory usage/rank             213.278720E+06
 # max total images/rank                        1
 # max 3D layers                                1
 # MPI messages exchanged                  416640
 MPI messages size (bytes):
  total size                        11.778458E+09
  min size                           0.000000E+00
  max size                          86.528000E+03
  average size                      28.270107E+03
 MPI breakdown and total messages size (bytes):
             size <=      128              165760                        0
       128 < size <=     8192                   0                        0
      8192 < size <=    32768              165760               4413194240
     32768 < size <=   131072               85120               7365263360
    131072 < size <=  4194304                   0                        0
   4194304 < size <= 16777216                   0                        0
  16777216 < size                               0                        0
 -------------------------------------------------------------------------------
 -                                                                             -
 -                      DBCSR MESSAGE PASSING PERFORMANCE                      -
 -                                                                             -
 -------------------------------------------------------------------------------
 ROUTINE             CALLS      AVE VOLUME [Bytes]
 MP_Bcast                3                     12.
 MP_Allreduce         2419                      8.
 MP_Alltoall          9522                  28533.
 MP_ISend            14880                  14244.
 MP_IRecv            14880                  13257.
 -------------------------------------------------------------------------------

 -------------------------------------------------------------------------------
 -                                                                             -
 -                                DBM STATISTICS                               -
 -                                                                             -
 -------------------------------------------------------------------------------
    M  x    N  x    K                                          COUNT     PERCENT
 -------------------------------------------------------------------------------

 -------------------------------------------------------------------------------
 -                                                                             -
 -                                GRID STATISTICS                              -
 -                                                                             -
 -------------------------------------------------------------------------------
 LP    KERNEL             BACKEND                              COUNT     PERCENT
 4     collocate general  CPU                               13026580      48.45%
 4     integrate general  CPU                               10074073      37.47%
 7     integrate general  CPU                                2952507      10.98%
 0     collocate general  CPU                                 417792       1.55%
 0     integrate general  CPU                                 208896       0.78%
 3     integrate general  CPU                                 208896       0.78%
 -------------------------------------------------------------------------------

 MEMORY| Estimated peak process memory [MiB]                                 204

 -------------------------------------------------------------------------------
 ----                             MULTIGRID INFO                            ----
 -------------------------------------------------------------------------------
 count for grid        1:          16192          cutoff [a.u.]          150.00
 count for grid        2:         664487          cutoff [a.u.]           50.00
 count for grid        3:        1668673          cutoff [a.u.]           16.67
 count for grid        4:         710675          cutoff [a.u.]            5.56
 total gridlevel count  :        3060027

 -------------------------------------------------------------------------------
 -                                                                             -
 -                         MESSAGE PASSING PERFORMANCE                         -
 -                                                                             -
 -------------------------------------------------------------------------------

 ROUTINE             CALLS      AVE VOLUME [Bytes]
 MP_Group                4
 MP_Bcast              541                 346420.
 MP_Allreduce         5492                   1482.
 MP_Sync               178
 MP_Alltoall          6014                1181986.
 MP_SendRecv         42525                  30891.
 MP_ISendRecv        42525                  30891.
 MP_Wait             59529
 MP_ISend            14388                 147681.
 MP_IRecv            14388                 147681.
 -------------------------------------------------------------------------------


 -------------------------------------------------------------------------------
 -                                                                             -
 -                           R E F E R E N C E S                               -
 -                                                                             -
 -------------------------------------------------------------------------------
 
 CP2K version 2024.3, the CP2K developers group (2024).
 CP2K is freely available from https://www.cp2k.org/ .
 
 T. D. Kuehne, M. Iannuzzi, M. Del Ben, V. V. Rybkin, P. Seewald, F. Stein, T. 
 Laino, R. Z. Khaliullin, O. Schuett, F. Schiffmann, D. Golze, J. Wilhelm, S. 
 Chulkov, M. H. Bani-Hashemian, V. Weber, U. Borstnik, M. Taillefumier, A. S. 
 Jakobovits, A. Lazzaro, H. Pabst, T. Mueller, R. Schade, M. Guidon, S. 
 Andermatt, N. Holmberg, G. K. Schenter, A. Hehn, A. Bussy, F. Belleflamme, G. 
 Tabacchi, A. Gloess, M. Lass, I. Bethune, C. J. Mundy, C. Plessl, M. Watkins, 
 J. VandeVondele, M. Krack, J. Hutter.
 J. Chem. Phys. 152, 194103 (2020).
 CP2K: An electronic structure and molecular dynamics software package - 
 Quickstep: Efficient and accurate electronic structure calculations.
 https://doi.org/10.1063/5.0007045

 O. Schuett, P. Messmer, J. Hutter, J. VandeVondele.
 Electronic Structure Calculations on Graphics Processing Units, 173-190 (2016).
 GPU-Accelerated Sparse Matrix-Matrix Multiplication for Linear Scaling Density 
 Functional Theory.
 https://doi.org/10.1002/9781118670712.ch8

 A. Heinecke, G. Henry, M. Hutchinson, H. Pabst.
 Proceedings of Intl. Supercomputing Conference, 981-991 (2016).
 LIBXSMM: Accelerating Small Matrix Multiplications by Runtime Code Generation.
 https://doi.org/10.1109/SC.2016.83

 J. Hutter, M. Iannuzzi, F. Schiffmann, J. VandeVondele.
 WIREs Comput Mol Sci. 4, 15-25 (2014).
 CP2K: atomistic simulations of condensed matter systems.
 https://doi.org/10.1002/wcms.1159

 U. Borstnik, J. VandeVondele, V. Weber, J. Hutter.
 Parallel Comput. 40, 47-58 (2014).
 Sparse matrix multiplication: The distributed block-compressed sparse row 
 library.
 https://doi.org/10.1016/j.parco.2014.03.012

 A. Marek, V. Blum, R. Johanni, V. Havu, B. Lang, T. Auckenthaler, A. Heinecke, 
 H. Bungartz, H. Lederer.
 J. Phys. Condens. Matter 26, 213201 (2014).
 The ELPA library: scalable parallel eigenvalue solutions for electronic 
 structure theory and computational science.
 https://doi.org/10.1088/0953-8984/26/21/213201

 G. Bussi, D. Donadio, M. Parrinello.
 J. Chem. Phys. 126, 014101 (2007).
 Canonical sampling through velocity rescaling.
 https://doi.org/10.1063/1.2408420

 J. VandeVondele, J. Hutter.
 J. Chem. Phys. 127, 114105 (2007).
 Gaussian basis sets for accurate calculations on molecular systems in gas and 
 condensed phases.
 https://doi.org/10.1063/1.2770708

 T. D. Khne, M. Krack, F. R. Mohamed, M. Parrinello.
 Phys. Rev. Lett. 98, 066401 (2007).
 Efficient and accurate Car-Parrinello-like approach to Born-Oppenheimer 
 molecular dynamics.
 https://doi.org/10.1103/PhysRevLett.98.066401

 J. VandeVondele, M. Krack, F. Mohamed, M. Parrinello, T. Chassaing, J. Hutter.
 Comput. Phys. Commun. 167, 103-128 (2005).
 QUICKSTEP: Fast and accurate density functional calculations using a mixed 
 Gaussian and plane waves approach.
 https://doi.org/10.1016/j.cpc.2004.12.014

 M. Krack.
 Theor. Chem. Acc. 114, 145-152 (2005).
 Pseudopotentials for H to Kr optimized for gradient-corrected 
 exchange-correlation functionals.
 https://doi.org/10.1007/s00214-005-0655-y

 M. Frigo, S. G. Johnson.
 Proc. IEEE 93, 216-231 (2005).
 The design and implementation of FFTW3.
 https://doi.org/10.1109/JPROC.2004.840301

 J. Kolafa.
 J. Comput. Chem. 25, 335-342 (2004).
 Time-reversible always stable predictor-corrector method for molecular dynamics 
 of polarizable molecules.
 https://doi.org/10.1002/jcc.10385

 C. Hartwigsen, S. Goedecker, J. Hutter.
 Phys. Rev. B 58, 3641-3662 (1998).
 Relativistic separable dual-space Gaussian pseudopotentials from H to Rn.
 https://doi.org/10.1103/PhysRevB.58.3641

 G. Lippert, J. Hutter, M. Parrinello.
 Mol. Phys. 92, 477-487 (1997).
 A hybrid Gaussian and plane wave density functional scheme.
 https://doi.org/10.1080/002689797170220

 S. Goedecker, M. Teter, J. Hutter.
 Phys. Rev. B 54, 1703-1710 (1996).
 Separable dual-space Gaussian pseudopotentials.
 https://doi.org/10.1103/PhysRevB.54.1703

 J. P. Perdew, K. Burke, M. Ernzerhof.
 Phys. Rev. Lett. 77, 3865-3868 (1996).
 Generalized gradient approximation made simple.
 https://doi.org/10.1103/PhysRevLett.77.3865


 -------------------------------------------------------------------------------
 -                                                                             -
 -                                T I M I N G                                  -
 -                                                                             -
 -------------------------------------------------------------------------------
 SUBROUTINE                       CALLS  ASD         SELF TIME        TOTAL TIME
                                MAXIMUM       AVERAGE  MAXIMUM  AVERAGE  MAXIMUM
 CP2K                                 1  1.0    0.136    0.151   73.787   73.787
 qs_mol_dyn_low                       1  2.0    0.005    0.018   72.637   72.638
 qs_forces                           51  4.0    0.006    0.006   72.246   72.246
 velocity_verlet                     50  3.0    0.006    0.011   69.091   69.096
 qs_energies                         51  5.0    0.003    0.015   52.034   52.038
 scf_env_do_scf                      51  6.0    0.002    0.005   42.609   42.617
 scf_env_do_scf_inner_loop          174  6.9    0.004    0.013   42.607   42.614
 rebuild_ks_matrix                  225  8.3    0.001    0.001   38.330   38.340
 qs_ks_build_kohn_sham_matrix       225  9.3    0.020    0.022   38.329   38.340
 sum_up_and_integrate               225 10.3    0.003    0.015   30.219   30.282
 integrate_v_rspace                 225 11.3    0.004    0.004   30.190   30.248
 grid_integrate_task_list           225 12.3   22.969   23.379   22.969   23.379
 qs_ks_update_qs_env                174  7.9    0.001    0.001   21.689   21.700
 qs_rho_update_rho_low              225  8.2    0.001    0.001   17.475   17.488
 calculate_rho_elec                 225  9.2    0.033    0.037   17.474   17.487
 qs_ks_update_qs_env_forces          51  5.0    0.000    0.000   16.673   16.674
 grid_collocate_task_list           225 10.2   12.339   12.696   12.339   12.696
 fft_wrap_pw1pw2                   3999 12.7    0.031    0.035    6.245    7.380
 qs_scf_new_mos                     174  7.9    0.002    0.003    6.876    6.889
 fft_wrap_pw1pw2_150               2649 13.9    0.263    0.288    5.701    6.823
 qs_vxc_create                      225 10.3    0.003    0.004    6.376    6.466
 xc_vxc_pw_create                   225 11.3    0.249    0.276    6.372    6.464
 fft3d_ps                          3999 14.7    1.920    2.116    5.063    6.387
 eigensolver                        174  8.9    0.007    0.009    6.256    6.268
 transfer_pw2rs                    1002 12.9    0.007    0.008    5.984    6.029
 potential_pw2rs                    225 12.3    0.008    0.009    5.861    5.915
 init_scf_run                        51  6.0    0.002    0.005    5.565    5.573
 scf_env_initial_rho_setup           51  7.0    0.001    0.003    5.387    5.394
 density_rs2pw                      225 10.2    0.007    0.008    5.007    5.281
 cp_fm_diag_elpa                    174  9.9    0.001    0.001    5.099    5.159
 wfi_extrapolate                     51  8.0    0.005    0.017    5.039    5.039
 cp_fm_diag_elpa_base               174 10.9    4.988    5.001    5.011    5.017
 transfer_rs2pw                    1002 11.0    0.008    0.009    4.576    4.937
 mp_alltoall_z22v                  3999 16.7    2.581    4.672    2.581    4.672
 xc_pw_derive                      1350 13.3    0.007    0.009    3.326    4.554
 xc_rho_set_and_dset_create         225 12.3    0.079    0.096    3.803    4.047
 mp_waitany                       14388 13.4    3.024    3.826    3.024    3.826
 mp_waitall_1                     82341 15.0    3.140    3.536    3.140    3.536
 build_core_hamiltonian_matrix_      51  5.0    0.001    0.001    3.191    3.483
 xc_pw_divergence                   225 12.3    0.003    0.003    2.237    3.302
 transfer_pw2rs_150                 327 13.1    0.909    1.004    2.875    3.044
 transfer_pw2rs_50                  225 14.3    0.410    0.436    2.428    2.950
 yz_to_x                           1401 15.9    0.130    0.161    1.365    2.907
 transfer_rs2pw_150                 327 11.6    0.567    0.629    2.370    2.719
 mp_alltoall_d11v                  4539 11.9    1.806    2.499    1.806    2.499
 xc_functional_eval                 225 13.3    0.002    0.002    2.028    2.285
 pbe_lda_eval                       225 14.3    2.026    2.283    2.026    2.283
 rs_gather_matrices                 225 12.3    0.007    0.008    1.345    2.038
 mp_sendrecv_dv                   42525 13.2    1.971    1.991    1.971    1.991
 qs_energies_init_hamiltonians       51  6.0    0.001    0.001    1.975    1.975
 transfer_rs2pw_50                  225 12.2    0.172    0.189    1.859    1.927
 x_to_yz                           1698 15.7    0.189    0.216    1.512    1.904
 build_core_ppnl_forces              51  6.0    1.627    1.784    1.627    1.784
 scf_post_calculation_gpw            51  6.0    0.001    0.001    1.697    1.712
 write_available_results             51  7.0    0.000    0.000    1.695    1.710
 write_mo_free_results               51  8.0    0.020    0.037    1.692    1.708
 -------------------------------------------------------------------------------

 The number of warnings for this run is : 174
 
 -------------------------------------------------------------------------------
  **** **** ******  **  PROGRAM ENDED AT                 2024-10-22 16:42:01.302
 ***** ** ***  *** **   PROGRAM RAN ON                                       cn2
 **    ****   ******    PROGRAM RAN BY                                wuxingxing
 ***** **    ** ** **   PROGRAM PROCESS ID                                 10871
  **** **  *******  **  PROGRAM STOPPED IN /data/home/wuxingxing/datas/al_dir/si
                                           _6_cp2k/init_bulk/temp_init_bulk_work
                                           /aimd/init_config_0/relax/0_aimd
