ITEM: TIMESTEP
0
ITEM: NUMBER OF ATOMS
96
ITEM: BOX BOUNDS xy xz yz pp pp pp
-1.7274452626000001e+00 1.0104840183100000e+01 0.0000000000000000e+00
0.0000000000000000e+00 1.0280700000000000e+01 -1.7274452626000001e+00
0.0000000000000000e+00 1.0275204583100001e+01 0.0000000000000000e+00
ITEM: ATOMS id type x y z fx fy fz
1 1 1.22366 2.7841 1.06666 0.00312781 -0.000914035 0.00143688
5 1 6.27608 2.7841 1.06666 0.003128 -0.000915113 0.00143622
9 1 3.39691 0.21396 1.50213 -0.00313185 -0.00263969 -0.00110433
13 1 8.44933 0.21396 1.50213 -0.0031341 -0.00263827 -0.0011049
17 1 2.96503 2.35622 4.07094 -0.00269878 0.00231433 -0.00154718
21 1 8.01745 2.35622 4.07094 -0.00270116 0.00231296 -0.00154639
25 1 0.79179 4.92642 3.63547 0.00355865 0.00125033 0.00098831
29 1 5.84421 4.92642 3.63547 0.00355918 0.00125059 0.000987876
33 2 0.1082 4.36821 1.69191 -0.00261287 -0.00255412 0.00053648
37 2 5.16062 4.36821 1.69191 -0.00261368 -0.00255376 0.000536909
41 2 4.51237 1.79803 0.876898 0.00265238 -0.00221794 -0.000971888
45 2 9.56479 1.79803 0.876898 0.00265298 -0.00221793 -0.000971875
49 2 4.08052 0.772124 3.44569 0.00195883 0.00306577 -0.000606123
53 2 9.13294 0.772124 3.44569 0.00195956 0.00306587 -0.000605464
57 2 -0.323644 3.34233 4.26071 -0.00331077 0.00168418 0.000899006
61 2 4.72878 3.34233 4.26071 -0.00331192 0.00168403 0.000899381
65 2 1.82611 1.33361 2.48379 0.00355088 -0.00108228 0.00123996
69 2 6.87853 1.33361 2.48379 0.003552 -0.00108257 0.00124055
73 2 2.79445 3.90379 0.0850021 -0.00321012 -0.00123045 -0.00101375
77 2 7.84687 3.90379 0.0850021 -0.00320926 -0.0012303 -0.00101359
81 2 2.36259 3.80674 2.6538 -0.00332871 0.000951165 -0.00105959
85 2 7.41501 3.80674 2.6538 -0.00332742 0.000950851 -0.00105909
89 2 1.39425 1.23656 5.0526 0.00344499 0.00137301 0.00120111
93 2 6.44667 1.23656 5.0526 0.00344554 0.00137351 0.00120152
2 1 0.359939 2.7841 6.20426 0.00312781 -0.000914035 0.00143688
6 1 5.41236 2.7841 6.20426 0.003128 -0.000915113 0.00143622
10 1 2.53318 0.21396 6.63974 -0.00313185 -0.00263969 -0.00110433
14 1 7.5856 0.21396 6.63974 -0.0031341 -0.00263827 -0.0011049
18 1 2.10131 2.35622 9.20855 -0.00269878 0.00231433 -0.00154718
22 1 7.15373 2.35622 9.20855 -0.00270116 0.00231296 -0.00154639
26 1 -0.0719329 4.92642 8.77307 0.00355865 0.00125033 0.00098831
30 1 4.98049 4.92642 8.77307 0.00355918 0.00125059 0.000987876
34 2 -0.755522 4.36821 6.82952 -0.00261287 -0.00255412 0.00053648
38 2 4.2969 4.36821 6.82952 -0.00261368 -0.00255376 0.000536909
42 2 3.64864 1.79803 6.0145 0.00265238 -0.00221794 -0.000971888
46 2 8.70106 1.79803 6.0145 0.00265298 -0.00221793 -0.000971875
50 2 3.2168 0.772124 8.58329 0.00195883 0.00306577 -0.000606123
54 2 8.26922 0.772124 8.58329 0.00195956 0.00306587 -0.000605464
58 2 -1.18737 3.34233 9.39831 -0.00331077 0.00168418 0.000899006
62 2 3.86505 3.34233 9.39831 -0.00331192 0.00168403 0.000899381
66 2 0.96239 1.33361 7.6214 0.00355088 -0.00108228 0.00123996
70 2 6.01481 1.33361 7.6214 0.003552 -0.00108257 0.00124055
74 2 1.93072 3.90379 5.2226 -0.00321012 -0.00123045 -0.00101375
78 2 6.98314 3.90379 5.2226 -0.00320926 -0.0012303 -0.00101359
82 2 1.49887 3.80674 7.79141 -0.00332871 0.000951165 -0.00105959
86 2 6.55129 3.80674 7.79141 -0.00332742 0.000950851 -0.00105909
90 2 0.53053 1.23656 10.1902 0.00344499 0.00137301 0.00120111
94 2 5.58295 1.23656 10.1902 0.00344554 0.00137351 0.00120152
3 1 1.22366 7.92445 1.06666 0.00312781 -0.000914035 0.00143688
7 1 6.27608 7.92445 1.06666 0.003128 -0.000915113 0.00143622
11 1 3.39691 5.35431 1.50213 -0.00313185 -0.00263969 -0.00110433
15 1 8.44933 5.35431 1.50213 -0.0031341 -0.00263827 -0.0011049
19 1 2.96503 7.49657 4.07094 -0.00269878 0.00231433 -0.00154718
23 1 8.01745 7.49657 4.07094 -0.00270116 0.00231296 -0.00154639
27 1 0.79179 10.0668 3.63547 0.00355865 0.00125033 0.00098831
31 1 5.84421 10.0668 3.63547 0.00355918 0.00125059 0.000987876
35 2 0.1082 9.50856 1.69191 -0.00261287 -0.00255412 0.00053648
39 2 5.16062 9.50856 1.69191 -0.00261368 -0.00255376 0.000536909
43 2 4.51237 6.93838 0.876898 0.00265238 -0.00221794 -0.000971888
47 2 9.56479 6.93838 0.876898 0.00265298 -0.00221793 -0.000971875
51 2 4.08052 5.91247 3.44569 0.00195883 0.00306577 -0.000606123
55 2 9.13294 5.91247 3.44569 0.00195956 0.00306587 -0.000605464
59 2 -0.323644 8.48268 4.26071 -0.00331077 0.00168418 0.000899006
63 2 4.72878 8.48268 4.26071 -0.00331192 0.00168403 0.000899381
67 2 1.82611 6.47396 2.48379 0.00355088 -0.00108228 0.00123996
71 2 6.87853 6.47396 2.48379 0.003552 -0.00108257 0.00124055
75 2 2.79445 9.04414 0.0850021 -0.00321012 -0.00123045 -0.00101375
79 2 7.84687 9.04414 0.0850021 -0.00320926 -0.0012303 -0.00101359
83 2 2.36259 8.94709 2.6538 -0.00332871 0.000951165 -0.00105959
87 2 7.41501 8.94709 2.6538 -0.00332742 0.000950851 -0.00105909
91 2 1.39425 6.37691 5.0526 0.00344499 0.00137301 0.00120111
95 2 6.44667 6.37691 5.0526 0.00344554 0.00137351 0.00120152
4 1 0.359939 7.92445 6.20426 0.00312781 -0.000914035 0.00143688
8 1 5.41236 7.92445 6.20426 0.003128 -0.000915113 0.00143622
12 1 2.53318 5.35431 6.63974 -0.00313185 -0.00263969 -0.00110433
16 1 7.5856 5.35431 6.63974 -0.0031341 -0.00263827 -0.0011049
20 1 2.10131 7.49657 9.20855 -0.00269878 0.00231433 -0.00154718
24 1 7.15373 7.49657 9.20855 -0.00270116 0.00231296 -0.00154639
28 1 -0.0719329 10.0668 8.77307 0.00355865 0.00125033 0.00098831
32 1 4.98049 10.0668 8.77307 0.00355918 0.00125059 0.000987876
36 2 -0.755522 9.50856 6.82952 -0.00261287 -0.00255412 0.00053648
40 2 4.2969 9.50856 6.82952 -0.00261368 -0.00255376 0.000536909
44 2 3.64864 6.93838 6.0145 0.00265238 -0.00221794 -0.000971888
48 2 8.70106 6.93838 6.0145 0.00265298 -0.00221793 -0.000971875
52 2 3.2168 5.91247 8.58329 0.00195883 0.00306577 -0.000606123
56 2 8.26922 5.91247 8.58329 0.00195956 0.00306587 -0.000605464
60 2 -1.18737 8.48268 9.39831 -0.00331077 0.00168418 0.000899006
64 2 3.86505 8.48268 9.39831 -0.00331192 0.00168403 0.000899381
68 2 0.96239 6.47396 7.6214 0.00355088 -0.00108228 0.00123996
72 2 6.01481 6.47396 7.6214 0.003552 -0.00108257 0.00124055
76 2 1.93072 9.04414 5.2226 -0.00321012 -0.00123045 -0.00101375
80 2 6.98314 9.04414 5.2226 -0.00320926 -0.0012303 -0.00101359
84 2 1.49887 8.94709 7.79141 -0.00332871 0.000951165 -0.00105959
88 2 6.55129 8.94709 7.79141 -0.00332742 0.000950851 -0.00105909
92 2 0.53053 6.37691 10.1902 0.00344499 0.00137301 0.00120111
96 2 5.58295 6.37691 10.1902 0.00344554 0.00137351 0.00120152
