ITEM: TIMESTEP
10
ITEM: NUMBER OF ATOMS
96
ITEM: BOX BOUNDS xy xz yz pp pp pp
-1.8458665665541931e+00 1.0193088864174394e+01 0.0000000000000000e+00
-8.9784519010885688e-02 1.0370484519010889e+01 -1.7576178854797997e+00
-8.9736525842802450e-02 1.0364941108942801e+01 0.0000000000000000e+00
ITEM: ATOMS id type x y z fx fy fz
1 1 1.15159 2.74529 0.973895 -0.273364 0.356005 0.496859
5 1 6.28046 2.75004 0.971381 0.146912 -0.274617 0.252124
9 1 3.40123 0.147955 1.4515 -0.11109 -0.362905 0.530224
13 1 8.55439 0.104935 1.46078 -0.520424 0.681272 -0.719769
17 1 2.90566 2.3372 4.04002 0.58743 -0.618565 0.687841
21 1 8.05248 2.27362 4.05819 0.807401 0.777908 0.16458
25 1 0.745814 4.92102 3.61628 -1.22243 0.540356 -0.465554
29 1 5.88937 4.88452 3.63849 -1.14463 0.421777 -0.334949
33 2 -0.00328347 4.42168 1.63113 0.453247 -0.862124 0.0935694
37 2 5.15281 4.32402 1.66857 0.0596042 -0.00493706 -0.203798
41 2 4.57404 1.6918 0.786887 -0.465994 -0.0682499 -0.132033
45 2 9.67508 1.7722 0.755128 -0.441955 -0.511374 0.345769
49 2 4.11912 0.706093 3.47411 -0.610516 0.0971365 -0.470635
53 2 9.25772 0.760346 3.41802 0.13977 -0.335942 -0.41443
57 2 -0.421058 3.38606 4.31569 -0.378869 -0.335319 -0.468718
61 2 4.70597 3.26167 4.20997 0.591954 0.492347 0.76955
65 2 1.84813 1.34314 2.48781 -0.0870165 -0.658654 -0.558603
69 2 6.95034 1.20313 2.45861 0.0861359 0.74599 -0.36576
73 2 2.76249 3.84507 0.0293507 -0.333419 0.190675 0.00409747
77 2 7.8503 3.86369 -0.0536302 0.227278 0.397023 0.775252
81 2 2.34576 3.81509 2.65294 -0.720657 -0.0264343 -0.373259
85 2 7.39036 3.78026 2.64776 0.574836 -0.136158 -0.445633
89 2 1.3093 1.09029 5.06088 0.491156 0.885865 0.0780153
93 2 6.56402 1.20762 4.99927 -0.859909 -0.652071 0.936661
2 1 0.296965 2.7774 6.20755 -0.821728 -0.331411 0.340128
6 1 5.39175 2.75198 6.23669 -0.0186626 -0.105878 -0.11988
10 1 2.48079 0.137335 6.68346 -0.203231 -0.00251297 -0.118466
14 1 7.6513 0.126401 6.6819 0.0898357 0.58345 -0.589911
18 1 2.03591 2.30915 9.29589 0.184988 -0.263458 -0.0700375
22 1 7.21558 2.29908 9.24834 -0.277203 -0.50797 0.903026
26 1 -0.172456 4.92647 8.81287 -0.107355 -0.106604 0.226628
30 1 4.99687 4.92925 8.86443 -0.785659 -0.273621 -0.689159
34 2 -0.806186 4.38386 6.89309 -0.735445 -0.053042 -0.113529
38 2 4.27912 4.35099 6.86339 0.0812399 0.0414283 0.0552702
42 2 3.58756 1.80831 6.12971 -0.237192 -0.405358 -0.74889
46 2 8.7799 1.76794 6.04097 -0.112238 -0.283719 0.0494831
50 2 3.14073 0.698866 8.63921 0.573213 -0.21443 -0.0233982
54 2 8.35389 0.654686 8.65603 -0.689548 0.389238 -0.383563
58 2 -1.30338 3.3076 9.52276 0.177907 0.439145 -0.511215
62 2 3.77301 3.39521 9.48473 0.177563 -0.393328 0.341347
66 2 0.870886 1.27903 7.67549 0.0826799 -0.373153 0.226763
70 2 5.97693 1.26683 7.71701 0.635113 -0.292412 -0.960821
74 2 1.81898 3.96607 5.18699 0.773391 -0.750137 0.645102
78 2 7.05982 3.87746 5.27998 -0.75962 -0.00279222 -0.382665
82 2 1.36038 3.7356 7.8977 0.543195 0.487845 -0.583456
86 2 6.54803 3.72435 7.86573 -0.0444207 0.742046 -0.357093
90 2 0.474483 1.10314 10.3708 -0.0281794 0.748106 -0.756446
94 2 5.62065 1.11599 10.2769 0.200091 0.762652 -0.00173531
3 1 1.16245 7.93461 0.983724 -0.267846 0.692618 -0.197724
7 1 6.28459 7.99001 1.01565 -0.101128 0.0745346 -0.140553
11 1 3.34889 5.35679 1.44326 0.803607 -0.186967 0.502029
15 1 8.48263 5.37883 1.41666 0.565078 0.0421603 1.01258
19 1 2.8998 7.5173 4.08042 0.45867 0.0563884 -0.18518
23 1 8.11399 7.5465 4.05069 -0.338423 -0.191461 0.0279662
27 1 0.693271 10.1423 3.58838 0.993022 -0.0216272 0.0494614
31 1 5.86438 10.1347 3.60004 -0.0619788 0.125832 0.44359
35 2 0.0809088 9.65959 1.55213 0.0507132 -0.43184 0.568216
39 2 5.23627 9.64723 1.66969 -0.686531 -0.696123 -0.214006
43 2 4.51259 6.95122 0.831136 0.281935 0.367436 -0.413034
47 2 9.63615 6.96342 0.738477 0.0142441 -0.200677 0.272255
51 2 4.04847 5.87187 3.37641 0.0352327 0.524101 0.538502
55 2 9.21628 5.96758 3.40383 -0.00273282 -0.231718 -0.399654
59 2 -0.357652 8.52688 4.1589 -0.478067 -0.0902261 0.687513
63 2 4.6785 8.47793 4.33846 0.372927 0.739648 -0.687506
67 2 1.75841 6.49803 2.43361 0.116619 -0.254289 0.22084
71 2 6.91183 6.56534 2.49333 0.13941 -0.560836 -0.462331
75 2 2.68766 9.13581 -0.0609273 0.622102 -0.407627 0.777007
79 2 7.81793 9.15433 0.00470099 0.39896 -0.761938 -0.230446
83 2 2.30119 8.96042 2.62456 0.127005 0.606015 -0.601924
87 2 7.52845 9.02717 2.64149 -0.220532 -0.0451183 -0.304138
91 2 1.24039 6.4447 5.11862 0.764391 -0.536256 -0.686904
95 2 6.44468 6.38564 5.06029 0.413456 0.0589199 0.192611
4 1 0.274937 7.96357 6.2217 0.0971612 0.426194 0.0642782
8 1 5.41097 7.98529 6.23581 -0.579259 -0.510015 -0.689441
12 1 2.49459 5.38828 6.644 -0.080171 -0.311293 1.10021
16 1 7.60771 5.3922 6.6559 0.932886 -0.600375 -0.134123
20 1 2.05384 7.51951 9.29266 0.134695 0.0734786 -0.154638
24 1 7.17486 7.5262 9.25408 0.723542 0.162967 0.63546
28 1 -0.161409 10.1503 8.83432 0.102744 -0.304536 -0.0690023
32 1 4.98853 10.1338 8.79865 -1.02532 0.378363 0.937981
36 2 -0.885413 9.64403 6.76766 0.510387 -0.743917 0.498809
40 2 4.1985 9.50758 6.90467 0.444086 0.223053 0.0165614
44 2 3.59057 6.93821 6.06502 0.392452 0.137719 -0.425254
48 2 8.76673 6.98989 6.03957 -0.12479 0.11359 -0.448711
52 2 3.19975 5.93184 8.57906 -0.0161364 0.276387 0.373256
56 2 8.33371 5.96083 8.55361 0.170871 -0.0768789 0.706339
60 2 -1.31997 8.49881 9.49193 0.0193387 0.49014 -0.568243
64 2 3.8009 8.53744 9.46852 0.29507 0.136305 0.457101
68 2 0.849198 6.49569 7.73045 0.496988 0.0838039 -0.570178
72 2 6.09838 6.45189 7.67578 -0.87336 0.426663 0.0102286
76 2 1.94548 9.08212 5.17812 -0.837951 0.268539 0.679457
80 2 6.95973 9.10856 5.18774 0.163653 0.212105 0.704458
84 2 1.39366 8.98147 7.79902 -0.196754 0.244652 0.165978
88 2 6.53659 8.98393 7.79741 0.158947 0.270104 0.351495
92 2 0.513935 6.40553 10.3152 -0.517652 -0.284564 -0.245838
96 2 5.59111 6.42439 10.3349 -0.0857406 -0.336528 -0.724239
