ITEM: TIMESTEP
20
ITEM: NUMBER OF ATOMS
96
ITEM: BOX BOUNDS xy xz yz pp pp pp
-1.9172241220936277e+00 1.0246265192679303e+01 0.0000000000000000e+00
-1.4388630296336569e-01 1.0424586302963364e+01 -1.7757991125143251e+00
-1.4380939037755525e-01 1.0419013973477554e+01 0.0000000000000000e+00
ITEM: ATOMS id type x y z fx fy fz
1 1 1.10086 2.73 0.919543 -0.546984 -0.0590081 0.37662
5 1 6.28068 2.72686 0.909772 0.651511 -0.113494 0.446882
9 1 3.41257 0.108138 1.43543 -0.876744 -0.586472 -0.00633852
13 1 8.62587 0.043879 1.42953 -0.604118 0.603555 -1.18886
17 1 2.87209 2.32375 4.0299 0.953411 -0.887839 0.591232
21 1 8.08153 2.22505 4.05643 0.240663 0.577639 0.149259
25 1 0.705275 4.92609 3.59799 -1.52357 -0.339564 -0.687544
29 1 5.90776 4.85284 3.6447 -0.556912 0.707657 -0.657836
33 2 -0.0023348 4.31181 1.61382 -0.731391 0.306304 0.148544
37 2 5.14856 4.28945 1.64058 -0.609057 0.379853 0.400708
41 2 4.55599 1.6084 0.698415 0.247098 0.457194 -0.131934
45 2 9.68164 1.67309 0.720672 0.96646 0.440346 -0.507601
49 2 4.05942 0.689888 3.41525 0.688408 -0.0694844 -0.22721
53 2 9.36648 0.714499 3.32659 -0.553173 0.0883604 0.235071
57 2 -0.547801 3.37046 4.29194 0.567047 -0.0204474 0.31628
61 2 4.78343 3.28855 4.31082 -1.24545 -0.304419 -0.328635
65 2 1.86118 1.25799 2.40479 -0.640688 0.27995 0.0402416
69 2 7.02071 1.2382 2.38764 -0.170697 -0.463053 0.406965
73 2 2.68862 3.83682 0.00135711 0.355087 0.181977 -0.222027
77 2 7.87835 3.90827 -0.014472 -0.0390479 -0.277865 -0.494428
81 2 2.21994 3.81587 2.60337 0.624214 -0.371574 0.313982
85 2 7.45772 3.74488 2.58412 -0.153168 0.210135 0.570768
89 2 1.33817 1.15262 5.07122 -0.470734 -0.00635139 -0.584321
93 2 6.51621 1.09148 5.10396 0.254509 0.297645 -1.06807
2 1 0.250934 2.77981 6.21006 -0.925807 -0.537466 0.345981
6 1 5.36859 2.7339 6.25939 -0.0671712 -0.223746 0.0237107
10 1 2.4421 0.0947765 6.71463 0.0787771 0.00916916 0.110156
14 1 7.69957 0.0835532 6.70149 -0.30618 -0.0825847 -0.716886
18 1 1.99434 2.27592 9.35353 0.32493 -0.452313 -0.268909
22 1 7.25613 2.25232 9.27735 -0.568649 0.238018 0.725314
26 1 -0.23919 4.92629 8.83207 -0.059638 0.0290168 0.109897
30 1 4.99845 4.92852 8.91716 -0.834339 -0.227389 -0.639784
34 2 -0.963098 4.39205 6.91427 0.337549 -0.501498 -0.340377
38 2 4.2714 4.34952 6.90192 -0.482824 0.112811 0.234589
42 2 3.50586 1.75721 6.08276 0.871306 -0.152991 -0.289723
46 2 8.81588 1.70397 6.0578 0.413651 0.10142 -0.538984
50 2 3.1891 0.62446 8.66298 -0.372157 0.729744 -0.135959
54 2 8.30121 0.644137 8.63474 1.09992 -0.196014 0.190975
58 2 -1.35291 3.35736 9.52012 -0.631012 -0.674571 0.235424
62 2 3.73201 3.38081 9.60313 0.298523 -0.0358186 -0.253595
66 2 0.830537 1.18671 7.74814 0.306487 0.532271 -0.528561
70 2 6.055 1.17614 7.61668 -0.169502 0.461756 0.553659
74 2 1.86622 3.88821 5.26134 -0.538856 0.0647042 -0.512694
78 2 6.98355 3.86139 5.26018 0.487341 0.0675156 0.0190988
82 2 1.35261 3.7714 7.86867 -0.146702 -0.0960976 0.0709408
86 2 6.53358 3.79328 7.86374 0.230938 -0.336754 0.553988
90 2 0.443385 1.1361 10.3573 -0.135348 -0.315262 -0.36583
94 2 5.68587 1.16648 10.3156 -0.34248 -0.415517 -0.57328
3 1 1.12356 7.93978 0.925464 -0.063372 0.944599 -0.256383
7 1 6.28419 8.03739 0.988648 0.421155 -0.239823 -0.825224
11 1 3.32707 5.35348 1.41969 1.11287 0.0609994 0.395558
15 1 8.50323 5.40137 1.37551 0.683655 -0.521504 0.580724
19 1 2.85933 7.52307 4.09275 1.16904 0.74329 -0.73598
23 1 8.18207 7.57512 4.03815 -0.876288 -0.625186 -0.128255
27 1 0.645168 10.1833 3.55265 1.37187 -0.0844126 0.190849
31 1 5.87655 10.1706 3.58488 -0.474342 0.43109 0.694234
35 2 0.0763869 9.68521 1.55406 -0.733849 -0.543537 0.240217
39 2 5.18011 9.62065 1.6442 0.0799449 0.0156468 0.520831
43 2 4.55245 7.00967 0.729722 -1.01995 -1.15234 0.170273
47 2 9.68685 6.94342 0.681126 0.450278 0.33197 -0.0615251
51 2 4.03485 5.93022 3.42165 0.181526 -0.0109098 -0.335957
55 2 9.27262 5.97535 3.30137 0.239181 0.0994554 0.306139
59 2 -0.442626 8.54018 4.2011 0.309906 0.622243 -0.0375622
63 2 4.70451 8.60255 4.28588 -0.407133 -0.116471 0.0409961
67 2 1.73796 6.47618 2.43865 0.134874 0.487153 -0.36079
71 2 6.96182 6.53344 2.42548 0.00906034 -0.0496109 -0.199589
75 2 2.71225 9.1252 -0.0283438 -0.330557 0.0663873 -0.457076
79 2 7.8622 9.09739 -0.081743 0.432113 0.541457 0.40984
83 2 2.28012 9.05651 2.51564 -0.139442 -0.638307 1.15038
87 2 7.56835 9.07355 2.59435 -0.548013 0.069128 0.35206
91 2 1.26899 6.40342 5.05031 0.327812 0.0840941 0.0605887
95 2 6.51515 6.39806 5.09467 -0.0320164 -0.00864187 -0.554638
4 1 0.224408 7.99205 6.23308 -0.0806382 0.482696 0.25235
8 1 5.39714 8.01783 6.24696 0.18944 0.0986805 -0.462413
12 1 2.47295 5.41401 6.65984 0.609926 -0.646518 1.1788
16 1 7.62908 5.41665 6.66051 0.207127 -0.446059 0.416766
20 1 2.03043 7.52875 9.34602 0.516928 0.734288 0.0362055
24 1 7.19419 7.54325 9.28373 0.165692 0.376841 0.47737
28 1 -0.213094 10.193 8.86938 -0.070788 -0.306136 0.138087
32 1 4.97794 10.1734 8.81761 -0.282912 0.128103 1.09806
36 2 -0.886787 9.61002 6.80573 -0.66868 0.414419 0.597155
40 2 4.1917 9.52625 6.96396 -0.129782 0.245733 -0.264424
44 2 3.61733 6.95511 6.01663 -0.165741 0.088222 -0.405559
48 2 8.78741 7.03892 5.97554 0.238893 -0.494474 0.242952
52 2 3.19235 5.99625 8.62436 0.0367386 -0.19645 -0.0840197
56 2 8.39786 5.99161 8.63117 -0.35749 0.0687334 -0.319525
60 2 -1.40187 8.59155 9.45386 0.157927 -0.0274117 0.664334
64 2 3.7986 8.60042 9.59225 -0.237796 0.164189 -0.225184
68 2 0.864737 6.52017 7.70037 0.0921703 -0.123066 -0.326881
72 2 6.01866 6.5061 7.70799 0.449765 0.0716299 -0.187695
76 2 1.81249 9.14184 5.26133 -0.0789006 -0.0616879 -0.394729
80 2 6.96298 9.18015 5.27827 0.291872 -0.423551 -0.54732
84 2 1.28729 9.03948 7.83982 0.580844 -0.0697502 0.780615
88 2 6.54574 9.04213 7.85462 0.103474 -0.170475 0.0426711
92 2 0.428257 6.37322 10.3532 0.171369 0.255847 -0.00408625
96 2 5.58478 6.39915 10.3066 0.26682 0.19998 0.235866
