ITEM: TIMESTEP
30
ITEM: NUMBER OF ATOMS
96
ITEM: BOX BOUNDS xy xz yz pp pp pp
-1.8089081360423866e+00 1.0165547090537887e+01 0.0000000000000000e+00
-6.1763421487899706e-02 1.0342463421487899e+01 -1.7482012286045021e+00
-6.1730406639667557e-02 1.0336934989739664e+01 0.0000000000000000e+00
ITEM: ATOMS id type x y z fx fy fz
1 1 1.14269 2.77692 0.981946 0.628611 0.204212 0.392273
5 1 6.26277 2.76418 0.967452 0.9737 0.306946 1.17466
9 1 3.44872 0.186091 1.51555 -1.3045 -0.630985 -0.637116
13 1 8.59277 0.127747 1.46908 -1.08223 0.742267 -0.840838
17 1 2.91358 2.36566 4.05941 -0.00795069 -0.83063 -0.23748
21 1 8.03939 2.26429 4.08531 0.335748 0.737078 -0.513863
25 1 0.746464 4.92974 3.60541 -0.329432 -0.87265 -0.283711
29 1 5.88907 4.84282 3.67606 -1.01147 0.902974 -0.698044
33 2 -0.0137417 4.27329 1.71447 -0.0901102 0.271169 -0.302623
37 2 5.06364 4.31502 1.77314 1.1562 -1.15969 -0.24156
41 2 4.57803 1.68277 0.714119 -0.24566 -0.505588 0.579829
45 2 9.71754 1.70599 0.713519 -0.876311 -0.876812 0.159126
49 2 4.13962 0.787865 3.3447 -0.210883 0.44177 0.223586
53 2 9.26308 0.790486 3.32366 0.107332 -0.0936508 0.331669
57 2 -0.430419 3.39749 4.32888 -0.135949 0.235733 -0.426414
61 2 4.65391 3.33875 4.37223 0.683669 0.729586 -0.524417
65 2 1.83189 1.29731 2.37982 0.0376715 -0.28051 -0.0044921
69 2 6.9971 1.29567 2.4376 -0.487282 -0.273434 -0.664392
73 2 2.73174 3.89579 0.0476015 -0.0357095 -0.243413 -0.325173
77 2 7.83189 3.92619 0.0780179 0.0976225 -0.453195 -0.169883
81 2 2.27136 3.78495 2.66383 0.158162 0.305085 -0.367309
85 2 7.43969 3.78792 2.6814 -0.287719 0.140635 -0.186998
89 2 1.3695 1.30016 4.97775 -0.356543 -1.27292 0.274487
93 2 6.46711 1.13732 5.02574 0.360609 0.645037 0.0976997
2 1 0.310821 2.8321 6.19168 0.22302 -0.778515 0.0339972
6 1 5.33523 2.77384 6.25384 0.437999 0.0458874 -0.0753335
10 1 2.47068 0.184072 6.70559 -0.156309 0.368047 -0.891208
14 1 7.67483 0.170891 6.66514 -0.62801 -0.187458 -0.747168
18 1 2.03757 2.30924 9.29473 0.0127545 0.678652 -1.24463
22 1 7.22874 2.28315 9.21326 -0.772529 0.340968 -0.193141
26 1 -0.171026 4.93068 8.75891 0.268687 -0.416064 0.370208
30 1 4.98353 4.92763 8.85909 -0.288351 -0.184998 -0.333545
34 2 -0.919337 4.33054 6.83248 0.125858 0.392664 0.464098
38 2 4.21713 4.36943 6.93843 0.796533 -0.798096 -0.208963
42 2 3.63006 1.73047 5.96024 -0.0629735 -0.687784 0.751518
46 2 8.81698 1.72069 5.95272 -0.447015 -0.587624 0.290668
50 2 3.23712 0.802422 8.56804 0.290702 -0.158679 -0.0146066
54 2 8.35797 0.731925 8.55135 -0.306948 0.458765 0.0922917
58 2 -1.32635 3.36262 9.4351 0.907886 0.758662 0.0625235
62 2 3.78834 3.40595 9.55203 -0.147057 0.222453 -0.502836
66 2 0.956763 1.29564 7.63897 -0.293828 0.1369 -0.366709
70 2 6.08525 1.27374 7.55068 -0.243882 0.0379297 0.555241
74 2 1.90962 3.86007 5.24942 -0.0478641 0.762202 -0.0242431
78 2 6.93724 3.88152 5.24809 0.261204 -0.302622 0.573214
82 2 1.42142 3.83658 7.78755 -0.15249 -0.0739995 0.669705
86 2 6.52508 3.84423 7.88229 0.0515917 -0.261954 -0.298598
90 2 0.498418 1.22147 10.1443 -0.0918655 -0.332404 1.00293
94 2 5.6574 1.23751 10.1287 -0.492425 -0.629642 0.735064
3 1 1.18585 7.89162 0.970644 0.589852 0.758203 0.322787
7 1 6.25916 8.00436 1.05355 0.441377 -1.05688 -0.305232
11 1 3.37019 5.34549 1.50157 -0.388895 -0.211831 0.26968
15 1 8.45087 5.40676 1.44329 0.967853 -0.840433 -0.133746
19 1 2.89874 7.48361 4.11377 1.04094 0.946362 -2.06185
23 1 8.15228 7.52959 4.05059 -1.26614 -0.105443 -0.407539
27 1 0.740188 10.0947 3.56249 1.10686 0.942442 0.834835
31 1 5.85963 10.0862 3.62462 0.170792 0.535161 0.686391
35 2 0.0514178 9.47405 1.70221 -0.100884 -0.0710944 -0.280806
39 2 5.11477 9.45722 1.78132 -0.110459 0.114049 -0.735389
43 2 4.46098 6.83608 0.771522 1.62979 1.20496 0.143088
47 2 9.68363 6.91833 0.734269 -0.722539 -0.580207 0.0300395
51 2 4.09726 5.97016 3.45113 0.206719 -0.247182 -0.297332
55 2 9.26061 5.99125 3.31097 -0.226813 0.440699 0.521838
59 2 -0.366917 8.56899 4.27843 -0.639922 -0.394363 -0.0234214
63 2 4.66162 8.61851 4.2684 -0.0389529 -0.437525 0.858092
67 2 1.8211 6.49946 2.44408 -0.304299 -0.416576 -0.112353
71 2 6.95099 6.46013 2.3853 -0.545198 0.612571 0.409545
75 2 2.75201 9.03375 0.0764834 0.0481441 0.638963 0.196528
79 2 7.91181 9.03929 0.0545543 -0.612657 0.392954 0.214664
83 2 2.30945 8.95784 2.68365 0.0392105 0.560556 -0.199751
87 2 7.43793 9.02141 2.66518 0.289068 -0.344893 -0.265888
91 2 1.44598 6.33494 4.99754 -1.22032 0.438987 0.683559
95 2 6.5421 6.38289 5.01848 -0.406597 0.184493 -0.112135
4 1 0.296513 7.95794 6.22233 -0.0556531 0.516726 0.455768
8 1 5.37701 7.97751 6.21754 0.710201 0.357124 -0.85531
12 1 2.52906 5.41853 6.6591 0.0314797 -1.22631 -0.293381
16 1 7.58938 5.42349 6.63306 -0.205873 -0.954093 0.117974
20 1 2.09272 7.48982 9.29142 -0.682116 0.30465 -0.00280237
24 1 7.16331 7.50714 9.21745 0.22152 0.80085 0.667163
28 1 -0.129854 10.1002 8.81222 0.318037 0.0572077 0.726428
32 1 4.96235 10.0878 8.76503 0.34171 0.746655 0.964751
36 2 -0.844101 9.50795 6.91724 0.271635 -0.376026 -0.573675
40 2 4.19312 9.48428 6.9238 0.0964858 -0.0952637 -0.047091
44 2 3.67311 6.93884 5.89985 0.172954 -0.311506 1.50272
48 2 8.77188 6.94315 5.93767 0.454916 -0.130573 0.432767
52 2 3.24578 6.00778 8.57244 0.0615394 0.0410611 0.0122824
56 2 8.32344 5.99673 8.55755 0.236182 -0.260075 -0.47117
60 2 -1.29612 8.58313 9.4374 -0.215749 -0.476724 0.442026
64 2 3.79322 8.61106 9.57404 0.105072 0.00489069 -0.0995632
68 2 0.994785 6.49374 7.54674 -0.86859 0.105223 0.911498
72 2 5.98571 6.53873 7.6298 0.36544 -0.494765 -0.194911
76 2 1.75483 9.10705 5.28936 1.07725 0.305466 0.142876
80 2 6.98438 9.06232 5.27289 0.16622 -0.0888189 -0.149079
84 2 1.40395 8.98391 7.94062 0.547628 0.0273594 -1.00164
88 2 6.53626 8.98659 7.85035 -0.11297 0.386747 -0.315109
92 2 0.471192 6.3522 10.2254 -0.186384 0.20249 -0.60884
96 2 5.61456 6.39221 10.1889 -0.120115 0.521436 0.491218
