ITEM: TIMESTEP
40
ITEM: NUMBER OF ATOMS
96
ITEM: BOX BOUNDS xy xz yz pp pp pp
-1.8169318328282689e+00 1.0171526425632601e+01 0.0000000000000000e+00
-6.7846818077488713e-02 1.0348546818077491e+01 -1.7502455902956715e+00
-6.7810551427296417e-02 1.0343015134527295e+01 0.0000000000000000e+00
ITEM: ATOMS id type x y z fx fy fz
1 1 1.12648 2.78617 0.97992 0.474459 -0.290493 -0.448945
5 1 6.28477 2.76362 0.976422 0.412462 -1.17048 0.274018
9 1 3.43152 0.167442 1.5215 -0.769982 0.143848 -0.992872
13 1 8.59611 0.141206 1.42983 -1.69612 -0.276314 0.557234
17 1 2.92118 2.34119 4.06918 -0.0810315 -0.809918 -0.165533
21 1 8.05519 2.27022 4.08463 0.32629 0.422129 -1.22059
25 1 0.703566 4.91478 3.5804 0.244488 0.20328 0.407528
29 1 5.86736 4.84677 3.66895 0.370783 0.915136 -0.404499
33 2 -0.111435 4.25788 1.7061 1.07259 -0.459097 0.0541459
37 2 5.1243 4.15228 1.79976 -1.13997 1.09586 -0.21107
41 2 4.55586 1.63461 0.739873 0.0374766 0.457651 -0.51723
45 2 9.72775 1.56511 0.644156 0.345601 0.882266 0.134143
49 2 4.17868 0.895061 3.29961 -0.341099 -0.183284 0.623672
53 2 9.23444 0.777092 3.3477 0.0756244 -0.0310251 -0.448517
57 2 -0.427447 3.42556 4.28781 -0.460058 -0.422697 0.204477
61 2 4.59151 3.46287 4.33719 -0.0020696 -0.654027 0.908745
65 2 1.74076 1.23677 2.32369 0.384222 0.214744 0.598642
69 2 6.91483 1.22941 2.33749 0.278195 0.268608 0.446003
73 2 2.7419 3.89784 -0.018887 -0.0703819 0.0681064 1.10932
77 2 7.85607 3.84312 0.0451919 0.0751952 0.60989 0.353624
81 2 2.31707 3.78044 2.61346 -0.50313 0.0574682 -0.0668143
85 2 7.42191 3.82681 2.71427 0.447947 -0.407758 -0.218882
89 2 1.28633 1.18064 4.92781 1.05994 1.12906 0.648308
93 2 6.50032 1.2234 4.94883 -0.400955 -0.78259 0.777069
2 1 0.290023 2.8312 6.19147 -0.134728 -0.192233 -0.291034
6 1 5.31695 2.77265 6.26622 1.60921 -0.713501 -0.273245
10 1 2.45401 0.194322 6.7068 0.549259 -0.591435 -0.813599
14 1 7.68159 0.168842 6.63972 -0.797531 -0.588116 0.220141
18 1 2.03123 2.30534 9.28373 0.241053 0.466433 -0.403118
22 1 7.2217 2.27336 9.21715 -0.890058 0.532753 -0.0171986
26 1 -0.186265 4.92536 8.75218 0.548796 0.324963 -0.00553193
30 1 4.96267 4.91962 8.85689 0.860765 -0.0297949 0.0198363
34 2 -0.92461 4.294 6.85721 0.262114 -0.287646 0.144546
38 2 4.24841 4.25209 6.97001 -0.855819 0.778655 -0.0137078
42 2 3.73936 1.54285 5.94767 -0.482955 1.17064 -0.903843
46 2 8.83733 1.59705 5.90513 0.552844 0.83478 0.14351
50 2 3.28668 0.893574 8.52496 -0.312298 -0.440386 0.06655
54 2 8.44678 0.818107 8.53605 -0.229098 -0.358586 -0.473309
58 2 -1.29193 3.42169 9.46632 -0.723896 -0.781124 0.587996
62 2 3.78541 3.42648 9.49258 -0.330671 -0.245209 0.572265
66 2 0.956278 1.3703 7.52253 -0.35046 -0.651757 1.21052
70 2 6.08916 1.31719 7.63108 0.279148 -0.431416 -0.648235
74 2 1.87937 3.93535 5.22381 0.154427 -0.613274 0.180966
78 2 6.97891 3.82777 5.33535 -0.431972 0.13246 -0.528925
82 2 1.40548 3.85421 7.86064 0.285725 -0.251953 -0.55692
86 2 6.55486 3.81832 7.90518 -0.227537 0.209375 -0.174488
90 2 0.465848 1.17935 10.1908 0.29556 0.334312 -0.13968
94 2 5.55956 1.1393 10.1571 0.809975 0.840474 0.335299
3 1 1.19031 7.90647 0.950875 -0.554362 0.383591 0.793702
7 1 6.26554 8.0007 1.04225 0.97244 -0.0770848 0.250155
11 1 3.38672 5.33729 1.52562 0.98811 -0.28005 -1.0459
15 1 8.4712 5.40201 1.44839 -0.653362 -0.199438 0.0535295
19 1 2.9239 7.50053 4.08253 0.154857 -0.0601442 0.363548
23 1 8.14723 7.52206 4.03722 -1.38719 0.543054 0.166755
27 1 0.782142 10.1055 3.56278 -1.23457 0.118538 1.06703
31 1 5.85872 10.0956 3.65107 0.252164 0.223572 -0.750875
35 2 -0.0750132 9.30734 1.753 0.730311 0.517865 0.097923
39 2 5.03054 9.40608 1.76785 0.271193 0.327598 0.666873
43 2 4.59714 6.84824 0.776873 -1.12324 -0.556887 -0.197057
47 2 9.66403 6.83059 0.712777 0.5884 0.186005 -0.182863
51 2 4.15445 5.99078 3.37615 -0.759363 0.292901 -0.0526428
55 2 9.30313 6.07113 3.36967 -0.0155501 -0.819615 -0.90688
59 2 -0.454902 8.62479 4.34335 0.689984 0.238837 0.187238
63 2 4.6028 8.62213 4.38735 0.381573 0.363658 -0.55525
67 2 1.81042 6.46895 2.37985 0.262542 -0.261901 0.330329
71 2 6.88727 6.50043 2.37716 0.584527 -0.671109 0.335294
75 2 2.74262 9.11272 0.112271 -0.193896 -0.625182 -0.257606
79 2 7.89865 9.11068 0.118192 -0.234681 -0.763508 -1.13048
83 2 2.31026 9.00077 2.77724 0.467497 -0.295972 -1.12759
87 2 7.38093 8.98071 2.66139 0.0543455 0.248784 0.152096
91 2 1.35851 6.39299 5.05678 0.508375 0.284622 -0.593485
95 2 6.51546 6.41676 4.92878 0.0678274 -0.221454 0.927122
4 1 0.288264 7.98181 6.23792 0.606036 -0.30774 -0.252353
8 1 5.37733 7.99323 6.19118 0.758569 0.279111 0.553159
12 1 2.54318 5.40435 6.68375 -1.04525 -0.467377 0.0468899
16 1 7.58955 5.41651 6.63232 0.166795 -0.716557 -0.409689
20 1 2.09477 7.49866 9.30733 -0.225656 0.311459 -0.314353
24 1 7.1725 7.52596 9.23309 0.0366626 0.0728298 0.178393
28 1 -0.12876 10.0897 8.83166 0.0667838 -0.0251187 0.559661
32 1 4.95017 10.1004 8.79417 0.144154 0.715222 0.274091
36 2 -0.877483 9.43561 6.97732 -0.0587104 0.433229 0.125605
40 2 4.20401 9.49841 6.90645 0.317989 -0.181848 0.387948
44 2 3.70133 6.88867 6.03526 -0.352669 0.00786362 -0.783957
48 2 8.88978 6.83842 5.98547 -0.853441 0.26696 -0.667362
52 2 3.27496 6.03686 8.57164 -0.141819 -0.0465106 -0.0545837
56 2 8.3266 5.99593 8.47122 -0.13071 0.54596 0.864785
60 2 -1.32373 8.56824 9.56973 0.166404 0.690191 -0.92447
64 2 3.77436 8.67831 9.59712 -0.0755341 -0.36977 -0.207311
68 2 0.917493 6.49729 7.60287 0.618895 0.0424526 0.227618
72 2 6.04543 6.50683 7.56494 -0.346114 0.0957884 0.494433
76 2 1.83892 9.16311 5.3193 0.0342851 -0.959276 -0.509318
80 2 7.05908 9.01543 5.24013 -0.636419 1.02752 0.404303
84 2 1.5537 9.01431 7.92286 -1.09184 0.320958 -0.0191709
88 2 6.53977 9.05293 7.84003 0.159107 -0.374763 0.192339
92 2 0.428952 6.41528 10.1104 0.58297 0.255527 1.24627
96 2 5.62783 6.48446 10.2352 -0.340741 -0.941571 -0.64467
