ITEM: TIMESTEP
50
ITEM: NUMBER OF ATOMS
96
ITEM: BOX BOUNDS xy xz yz pp pp pp
-1.8970766789967954e+00 1.0231251126620677e+01 0.0000000000000000e+00
-1.2861093926320244e-01 1.0409310939263202e+01 -1.7706657354761188e+00
-1.2854219192798766e-01 1.0403746775027985e+01 0.0000000000000000e+00
ITEM: ATOMS id type x y z fx fy fz
1 1 1.08221 2.76489 0.927672 1.05268 -0.735179 0.020143
5 1 6.32705 2.71877 0.950058 -0.947941 -0.349018 -0.0421553
9 1 3.37989 0.0993971 1.46959 0.00494799 0.669358 -0.502287
13 1 8.60404 0.099443 1.35889 -0.204294 -0.487402 0.736008
17 1 2.90358 2.27181 4.0638 0.018455 0.789759 -0.490561
21 1 8.10903 2.25383 4.05043 -0.0718037 -0.586133 -0.205469
25 1 0.621688 4.89747 3.54522 1.29134 0.0936296 0.181664
29 1 5.85528 4.86532 3.63714 -0.426017 0.107337 -0.170426
33 2 -0.0970025 4.1858 1.67842 -0.904139 0.839521 0.392028
37 2 5.04121 4.14688 1.75331 1.00883 0.125913 0.519289
41 2 4.53498 1.61272 0.644899 0.394601 -0.0982678 0.16405
45 2 9.79845 1.50646 0.574872 -0.330199 -0.0176471 0.335941
49 2 4.14663 0.901016 3.33118 0.357325 -1.20763 -0.790892
53 2 9.27408 0.70811 3.2692 0.0736787 0.159504 -0.162116
57 2 -0.565411 3.37363 4.27006 0.522946 0.358024 0.421784
61 2 4.58073 3.4895 4.44628 0.228757 -0.0187986 -0.384354
65 2 1.70069 1.16258 2.36024 0.35216 0.132834 0.231758
69 2 6.90457 1.16886 2.28886 0.568902 0.118648 0.638654
73 2 2.70237 3.89062 0.0297458 -0.265265 -0.0537051 -0.916937
77 2 7.91339 3.85331 0.0265535 -0.50482 -0.0144438 -0.0422088
81 2 2.23555 3.77368 2.54096 -0.0113813 -0.474977 1.15211
85 2 7.48425 3.77922 2.67098 -0.626991 -0.0421703 0.0112062
89 2 1.35252 1.17805 5.00599 -0.332293 -0.333893 0.0705899
93 2 6.50251 1.14403 5.02068 0.422357 0.149266 -0.259339
2 1 0.219455 2.79799 6.19742 0.508661 -0.821185 0.0180019
6 1 5.33056 2.73492 6.28496 0.508523 -0.247965 -0.445382
10 1 2.42113 0.143449 6.70626 0.974314 -0.399101 -0.398212
14 1 7.7013 0.105518 6.63357 0.203919 0.220101 0.936356
18 1 1.99681 2.28213 9.30675 0.0928369 0.0662328 0.459088
22 1 7.22105 2.24279 9.26282 0.469521 0.00312352 -0.0400088
26 1 -0.246229 4.92217 8.78743 0.142773 0.368332 1.24678
30 1 4.95437 4.90825 8.89278 0.00466309 0.00276881 -0.109981
34 2 -0.964853 4.23182 6.95282 -0.578861 0.550809 0.0728225
38 2 4.15591 4.23005 7.01288 0.399221 -0.189764 0.125716
42 2 3.72014 1.51741 5.82534 -0.152205 0.323738 1.18684
46 2 8.96238 1.57084 5.89684 -0.724609 0.0342989 -0.28103
50 2 3.26743 0.841686 8.52645 -0.232153 -0.137857 0.0100212
54 2 8.49383 0.812197 8.48086 -0.330623 -0.0814435 0.555235
58 2 -1.41766 3.37343 9.62297 0.118434 0.617922 -0.833577
62 2 3.72602 3.39885 9.58413 0.762095 0.2345 0.374239
66 2 0.849711 1.27989 7.64686 0.569972 -0.0797021 -0.227142
70 2 6.14271 1.23789 7.63099 -0.441131 0.0786062 0.145312
74 2 1.82907 3.90659 5.23628 -0.531159 0.0124911 0.00256038
78 2 6.96443 3.79151 5.32851 0.116156 0.526471 -0.423411
82 2 1.388 3.81327 7.88389 -0.357845 0.0732734 0.055104
86 2 6.5497 3.81039 7.91577 -0.223506 -0.106195 0.128662
90 2 0.444619 1.14654 10.2873 0.103662 -0.11365 -0.226794
94 2 5.6191 1.1414 10.3051 0.275008 0.0879693 -0.707811
3 1 1.1466 7.95806 0.902689 -0.219718 -0.428528 0.753113
7 1 6.30009 8.02148 0.990793 -0.854779 -0.245576 -0.149353
11 1 3.40022 5.32465 1.49155 -0.586586 0.141913 -1.35508
15 1 8.52112 5.39252 1.41396 0.425901 -0.57376 -0.611542
19 1 2.93081 7.54392 4.04171 -0.644837 -0.0243047 0.60482
23 1 8.14883 7.5486 4.01611 0.291376 0.0886428 0.780872
27 1 0.760618 10.1728 3.56787 -0.971148 -0.341424 0.218419
31 1 5.8698 10.1639 3.65027 -0.436927 0.755405 -0.615159
35 2 -0.122049 9.30841 1.78185 -0.148307 1.04472 -0.124522
39 2 5.01502 9.45845 1.8147 0.640562 -0.0758506 -0.391167
43 2 4.58919 6.83763 0.696048 0.184878 0.361222 -0.0916508
47 2 9.76857 6.78236 0.610408 -0.171734 0.512999 -0.0322271
51 2 4.1007 6.05923 3.29557 1.03027 -0.422353 0.758758
55 2 9.34345 6.04621 3.2528 -0.555917 0.485728 0.186174
59 2 -0.506164 8.73631 4.4259 -0.312661 -0.363372 -0.367511
63 2 4.61985 8.71748 4.40702 0.159075 -0.194771 -0.407036
67 2 1.78826 6.41012 2.35627 -0.409354 0.805349 0.245722
71 2 6.94616 6.45364 2.40619 0.192642 0.206842 -0.375861
75 2 2.68576 9.13852 0.0467749 0.326177 0.081474 -0.405561
79 2 7.85796 9.09894 -0.0561255 0.243645 0.29174 0.804191
83 2 2.3475 9.04988 2.62956 -0.589312 -0.248923 0.312119
87 2 7.37902 9.01099 2.6458 0.30734 -0.0451095 -0.149721
91 2 1.29893 6.51534 5.01458 0.328801 -0.707224 -0.160846
95 2 6.51654 6.42487 5.00449 0.243755 -0.106035 -0.26365
4 1 0.240702 8.03098 6.26147 0.256803 -0.491758 -0.462683
8 1 5.39582 8.04432 6.18599 -0.018543 -0.310715 1.43957
12 1 2.51103 5.38121 6.72437 -0.814344 0.293178 -0.253399
16 1 7.61857 5.39709 6.64205 0.0257345 -0.11797 0.532232
20 1 2.05983 7.53772 9.36167 -0.0979743 -0.0684624 -0.10483
24 1 7.2051 7.57336 9.29629 -0.179993 -0.238458 -0.305191
28 1 -0.180029 10.1333 8.90114 -0.363482 1.29011 -0.353252
32 1 4.94057 10.1797 8.86816 0.182852 -0.0627751 -0.568454
36 2 -0.964841 9.46737 7.04581 0.110965 -0.0177957 -0.439535
40 2 4.25682 9.53163 6.98765 -0.557665 0.353313 0.105112
44 2 3.67246 6.87089 6.04637 0.36174 0.557258 -1.10663
48 2 8.89552 6.81494 5.91454 -0.0818877 0.522474 -0.225825
52 2 3.2582 6.06432 8.60323 -0.0834112 -0.245546 0.0370707
56 2 8.36853 6.07603 8.55371 0.685901 -0.73858 -0.443238
60 2 -1.40517 8.69561 9.59665 -0.448655 -0.446221 0.34604
64 2 3.73696 8.71443 9.63762 0.164245 0.0661562 0.320817
68 2 0.886939 6.52798 7.73985 0.11292 0.000489529 -0.802977
72 2 6.06007 6.49361 7.61277 0.00670543 0.205651 -0.00324863
76 2 1.91545 9.10927 5.26715 -0.649971 0.670979 0.165146
80 2 7.03454 9.18014 5.2635 -0.194011 -0.803199 -0.438118
84 2 1.45494 9.14028 7.90272 -0.455294 -0.512246 0.294758
88 2 6.58364 9.09731 7.88898 -0.0585304 -0.275194 0.0493714
92 2 0.440033 6.51654 10.2615 -0.0700216 -0.930651 -0.0404022
96 2 5.5851 6.42652 10.2421 0.343274 0.152848 0.562504
