ITEM: TIMESTEP
60
ITEM: NUMBER OF ATOMS
96
ITEM: BOX BOUNDS xy xz yz pp pp pp
-1.8644313651815154e+00 1.0206923528534332e+01 0.0000000000000000e+00
-1.0385995526797309e-01 1.0384559955267978e+01 -1.7623480197471806e+00
-1.0380443825517993e-01 1.0379009021355177e+01 0.0000000000000000e+00
ITEM: ATOMS id type x y z fx fy fz
1 1 1.11947 2.76901 0.943131 -0.510445 -0.232003 0.257878
5 1 6.3339 2.70422 0.993027 -0.430744 0.458748 0.553733
9 1 3.35587 0.124506 1.46577 1.27213 -0.278392 -0.34192
13 1 8.54594 0.12779 1.36586 0.400886 -0.723719 1.25
17 1 2.92397 2.26127 4.0666 0.679916 0.754623 0.238986
21 1 8.1119 2.2744 4.02589 -0.376317 -0.319382 -0.245808
25 1 0.634811 4.88941 3.54267 0.699317 1.26696 1.27351
29 1 5.82599 4.89369 3.62694 1.07261 -0.0293861 0.878001
33 2 -0.11531 4.2419 1.75491 0.630791 -0.841235 -0.806463
37 2 5.10048 4.21003 1.83675 -0.374357 -0.512564 -1.05012
41 2 4.591 1.63103 0.648965 -0.3435 -0.560378 0.518798
45 2 9.77022 1.55701 0.641956 0.405698 0.464536 -0.0832447
49 2 4.16032 0.771484 3.2781 -0.550101 0.843789 0.597108
53 2 9.27524 0.758855 3.20831 0.556384 0.457677 1.04845
57 2 -0.523009 3.41294 4.34829 -0.158132 0.140703 -0.347212
61 2 4.59202 3.49672 4.49482 -0.456874 -0.580584 -0.967832
65 2 1.79649 1.19364 2.48427 0.0186113 0.189552 -0.809059
69 2 6.97736 1.20429 2.40987 -0.293708 -0.029715 -0.589891
73 2 2.6583 3.89189 0.0262961 0.452052 -0.208076 0.0705148
77 2 7.8387 3.88264 0.0785786 0.493909 -0.457444 -0.47406
81 2 2.19448 3.70693 2.70426 0.486609 0.477553 -0.951882
85 2 7.40611 3.73468 2.66094 0.313156 0.165702 -0.145665
89 2 1.41881 1.20152 5.10612 -0.927076 -0.404903 -0.75994
93 2 6.54583 1.15315 5.05726 -0.297219 0.50088 -0.386251
2 1 0.234739 2.7883 6.18722 -0.0783462 -0.317448 0.722762
6 1 5.35503 2.73014 6.27571 0.627003 0.492374 -0.448003
10 1 2.45059 0.163825 6.67223 0.597108 -0.532772 0.513235
14 1 7.67972 0.125396 6.62067 0.24669 -0.062631 0.694799
18 1 2.01633 2.3077 9.26971 0.771811 -0.0262924 0.536838
22 1 7.19244 2.26227 9.24022 0.94842 0.670918 -0.125916
26 1 -0.216775 4.93075 8.78775 0.0540278 0.212908 1.13459
30 1 4.95061 4.90109 8.86734 0.272601 0.425328 0.59553
34 2 -0.996479 4.25612 7.00467 0.410018 -0.583251 -0.958802
38 2 4.12683 4.21196 7.04658 0.323997 -0.184757 -0.257076
42 2 3.68915 1.6379 5.9081 -0.0292516 -0.516117 0.591806
46 2 8.8974 1.61999 5.84126 -0.167166 -0.505596 0.699654
50 2 3.22983 0.832201 8.49814 0.362725 0.239065 0.796084
54 2 8.42736 0.842201 8.47394 0.199252 -0.208226 0.403251
58 2 -1.42949 3.44253 9.58178 0.298305 -0.0876091 0.1976
62 2 3.80187 3.43068 9.67317 -0.854101 -0.236653 -0.764205
66 2 0.906715 1.23107 7.70405 -0.249756 0.522693 -0.652519
70 2 6.09166 1.22448 7.60904 -0.286928 0.028767 0.322824
74 2 1.74679 3.88704 5.25656 0.624474 0.239686 0.208183
78 2 6.94194 3.87484 5.23888 0.381965 -0.299532 0.66769
82 2 1.37447 3.80135 7.85749 0.092195 0.0704769 0.154112
86 2 6.47903 3.80103 7.89763 0.403872 -0.270654 -0.131996
90 2 0.512906 1.17034 10.2673 -0.50013 0.0508902 0.497313
94 2 5.71245 1.22886 10.2411 -1.12751 -0.856741 0.0808573
3 1 1.15943 7.95686 0.940086 -0.548021 -0.317423 0.714263
7 1 6.30217 7.99016 1.00617 -0.286261 -0.524144 0.472413
11 1 3.43241 5.31305 1.4905 -0.604985 0.919406 -0.26128
15 1 8.5195 5.36832 1.42703 -0.40399 0.211876 -0.916188
19 1 2.96189 7.54689 4.02945 -0.298457 -0.516616 -0.0373659
23 1 8.1011 7.53933 4.02657 0.0480101 0.0949581 0.0504366
27 1 0.784928 10.1511 3.60507 -1.71561 -0.469883 -0.178827
31 1 5.86239 10.165 3.65902 0.516481 0.0168852 -1.00546
35 2 -0.077553 9.44482 1.81856 0.499962 -0.449986 -0.956423
39 2 5.11361 9.43607 1.82281 -0.718322 0.415256 -1.05578
43 2 4.58518 6.83579 0.681771 0.161286 -0.181917 0.618728
47 2 9.7805 6.81816 0.584581 -0.350055 -0.036295 0.750649
51 2 4.20913 6.04533 3.36276 -1.13855 0.30672 -0.77765
55 2 9.24738 6.07549 3.21281 1.06552 -0.171319 0.913922
59 2 -0.501902 8.73067 4.44023 0.168949 0.0435163 -0.621985
63 2 4.66511 8.71262 4.34995 -0.436426 -0.339328 0.176869
67 2 1.77053 6.47086 2.42032 0.580644 -0.317932 -0.445484
71 2 6.99322 6.42311 2.40902 -0.990331 0.613867 -0.232761
75 2 2.71962 9.09813 -0.0177151 -0.0195458 0.242437 0.364324
79 2 7.82657 9.07251 -0.0135015 0.430133 0.558448 0.366245
83 2 2.32632 8.98873 2.5575 -0.240805 0.546904 0.437266
87 2 7.4082 8.98567 2.64053 0.307221 0.313496 -0.189408
91 2 1.37318 6.46909 4.94545 -0.341894 -0.42959 0.771604
95 2 6.52916 6.39828 5.04758 -0.35998 0.474707 -0.44133
4 1 0.276561 8.0227 6.25605 -0.47498 -0.586721 -0.992921
8 1 5.41029 8.04262 6.19176 -0.212641 -0.636481 0.799702
12 1 2.50265 5.3594 6.73276 -0.0678929 0.724793 -1.44154
16 1 7.60728 5.3702 6.63569 0.0334987 0.522475 0.149649
20 1 2.07116 7.53772 9.34435 -0.0714374 -0.146656 -0.211593
24 1 7.19961 7.57453 9.28644 -0.272869 -1.14934 -0.451731
28 1 -0.1553 10.1202 8.90357 -0.985887 1.04584 -0.982584
32 1 4.93654 10.1779 8.87197 0.152808 -0.23392 -0.602355
36 2 -0.94847 9.45147 7.00429 -0.214075 0.277163 -0.130676
40 2 4.22156 9.54343 7.04685 -0.0614897 -0.453003 -0.83811
44 2 3.72106 6.91604 5.83898 -0.328534 -0.775754 1.49096
48 2 8.82098 6.86211 5.81286 0.775162 -0.269402 1.55141
52 2 3.24718 6.03176 8.58039 -0.0622761 0.154184 -0.0259811
56 2 8.45757 6.0414 8.52072 -0.974456 0.839252 -0.126524
60 2 -1.44769 8.70582 9.59656 0.652644 0.105027 0.237239
64 2 3.74399 8.69809 9.65151 -0.123287 0.0833591 -0.371437
68 2 0.960489 6.5358 7.67532 -0.375279 -0.226403 -0.188968
72 2 6.05157 6.50349 7.63389 0.140931 -0.069251 -0.0498993
76 2 1.9081 9.10827 5.23472 -0.280348 0.48701 0.270929
80 2 6.94022 9.14499 5.23153 0.673483 -0.230597 0.437591
84 2 1.32724 9.08944 7.89306 1.06305 -0.536986 -0.163254
88 2 6.58616 9.02783 7.89708 -0.390514 0.603906 -0.354066
92 2 0.521675 6.42073 10.3419 -0.320726 -0.0638296 -0.805478
96 2 5.59964 6.37091 10.2591 0.315278 0.723536 0.0766119
