ITEM: TIMESTEP
70
ITEM: NUMBER OF ATOMS
96
ITEM: BOX BOUNDS xy xz yz pp pp pp
-1.8227252142952728e+00 1.0175843708556812e+01 0.0000000000000000e+00
-7.2239236933666184e-02 1.0352939236933672e+01 -1.7517216888384666e+00
-7.2200622372061041e-02 1.0347405205472061e+01 0.0000000000000000e+00
ITEM: ATOMS id type x y z fx fy fz
1 1 1.15819 2.76906 0.970606 0.544236 -0.498265 0.556049
5 1 6.32634 2.69882 1.04957 -1.12413 0.0889053 -0.822916
9 1 3.35639 0.152365 1.45722 0.506832 -0.198868 -0.436949
13 1 8.49374 0.149732 1.40324 1.88158 0.00331498 0.754699
17 1 2.95644 2.26993 4.07389 -1.20865 0.424764 0.263781
21 1 8.10583 2.29228 3.99901 0.232759 0.201713 0.772161
25 1 0.672468 4.90435 3.56651 1.36073 0.287161 1.13216
29 1 5.8124 4.92158 3.63307 0.377803 -0.457979 0.0743943
33 2 -0.0559896 4.19698 1.70372 -0.468319 0.992738 0.385736
37 2 5.1174 4.19026 1.75489 -0.258885 0.367148 0.270879
41 2 4.60562 1.56932 0.761397 0.156467 0.973933 -0.197959
45 2 9.75131 1.67429 0.701663 -1.27026 -0.518732 -0.259695
49 2 4.11635 0.764066 3.34786 0.618914 -0.0217208 0.792883
53 2 9.36833 0.896204 3.32968 -0.528683 -0.418069 -0.480968
57 2 -0.504359 3.47909 4.36391 -0.309734 -0.381616 -0.3966
61 2 4.56306 3.41074 4.34977 1.21295 0.440918 0.271232
65 2 1.88833 1.27297 2.45869 -0.677927 0.0817191 -0.0944316
69 2 6.99559 1.23466 2.43479 -0.434438 -0.125656 -0.142265
73 2 2.71043 3.85216 0.0193286 0.357131 0.025828 0.352687
77 2 7.84705 3.8383 0.0429551 0.104877 0.450099 0.0128812
81 2 2.26087 3.73777 2.7073 0.240793 0.558891 -0.582061
85 2 7.37862 3.74485 2.63529 0.428653 0.64691 0.203884
89 2 1.31242 1.16024 5.0585 0.728612 0.805267 -0.132251
93 2 6.51748 1.24969 5.00377 -0.63671 -0.65998 -0.125117
2 1 0.256647 2.77244 6.18956 0.169287 -0.253927 0.569551
6 1 5.3918 2.73601 6.25534 0.105253 0.16772 -0.144737
10 1 2.49536 0.17999 6.6464 -0.522065 -0.39029 1.19688
14 1 7.65826 0.150642 6.62263 -0.408868 -0.192605 0.912554
18 1 2.0538 2.33675 9.23974 -0.0229843 -0.130537 0.969018
22 1 7.17904 2.29757 9.21198 0.516685 0.160445 0.711215
26 1 -0.179349 4.94474 8.80584 0.0419085 -0.0641175 -0.30606
30 1 4.95045 4.9012 8.84701 -0.248885 0.00309577 0.110461
34 2 -0.966378 4.20716 6.89735 -0.158637 0.613164 0.628122
38 2 4.17871 4.16846 7.03087 0.0197677 0.643609 -0.1641
42 2 3.65798 1.68384 6.11063 0.0360875 0.336654 -1.50503
46 2 8.79234 1.6026 5.90546 0.556841 0.809979 -0.104465
50 2 3.25551 0.850391 8.60687 -0.180829 -0.571354 -0.444962
54 2 8.3859 0.828957 8.55146 -0.0170331 -0.202135 -0.315847
58 2 -1.3842 3.50736 9.53676 -0.262092 -0.49136 -0.142098
62 2 3.74419 3.42978 9.61611 0.324486 0.120912 -0.206414
66 2 0.932156 1.28234 7.63327 -0.168773 -0.214793 0.308616
70 2 5.98684 1.23343 7.6375 0.678734 0.257161 -0.455969
74 2 1.78664 3.90045 5.30986 0.513674 -0.644235 -0.477989
78 2 6.97346 3.91228 5.25119 -0.616164 -0.289232 -0.323353
82 2 1.37278 3.80897 7.86302 0.0714334 0.0252964 0.0523081
86 2 6.48836 3.75178 7.85367 0.40459 0.518075 -0.0710357
90 2 0.490787 1.19829 10.3029 -0.0329264 -0.239484 -0.925474
94 2 5.61408 1.17867 10.1878 0.354021 0.629068 0.849182
3 1 1.16717 7.94681 0.999016 -0.0598944 0.372746 0.377656
7 1 6.29532 7.94748 1.0341 -0.172209 1.04632 -0.158657
11 1 3.45218 5.31731 1.48444 -1.12265 -0.18114 -0.696879
15 1 8.50867 5.34578 1.42818 -0.0160327 0.220459 0.178953
19 1 2.98664 7.53648 4.02027 -1.06623 -0.653934 0.630239
23 1 8.0527 7.52895 4.04318 0.920274 0.25661 0.304919
27 1 0.780613 10.1159 3.64019 -1.04049 0.62724 -1.02132
31 1 5.86029 10.1618 3.64816 -0.144936 -0.431228 -1.16409
35 2 0.0449776 9.52707 1.67461 -0.541656 -0.0138869 0.293061
39 2 5.10335 9.49212 1.65548 0.536637 -0.151017 1.20433
43 2 4.61182 6.81371 0.776407 -0.179996 0.305161 -0.411829
47 2 9.70823 6.85004 0.715231 0.074579 -0.153958 0.144961
51 2 4.14885 6.05492 3.30646 0.419291 -0.478653 0.278556
55 2 9.30032 6.07897 3.33215 -0.954826 -0.21102 -0.677681
59 2 -0.47992 8.69576 4.32791 -0.174523 -0.6509 0.156834
63 2 4.65455 8.64764 4.31331 0.442683 0.222102 -0.0244118
67 2 1.85595 6.48367 2.40811 -0.164883 -0.239785 -0.0818731
71 2 6.87913 6.48831 2.38902 0.690852 -0.780374 0.830433
75 2 2.75972 9.09466 -0.00662836 -0.209919 -0.353379 0.507392
79 2 7.8701 9.13672 0.10138 -0.309632 -0.792799 -1.11776
83 2 2.26363 9.00744 2.60098 0.739649 -0.417609 0.507979
87 2 7.48999 9.01571 2.61828 -0.610491 0.0255904 0.66066
91 2 1.39742 6.34696 5.01519 -0.00416556 1.03553 -0.311824
95 2 6.48298 6.45012 4.99679 0.0666414 -0.307299 0.111206
4 1 0.31039 7.99855 6.22946 -0.433078 -0.542424 -0.430958
8 1 5.41835 8.02356 6.21561 -0.855238 -0.929087 0.552447
12 1 2.49382 5.35093 6.71003 -0.0353276 0.172413 -1.24571
16 1 7.59521 5.35324 6.6317 0.763802 0.843877 0.120276
20 1 2.08452 7.5318 9.3166 -0.128697 -0.240147 -0.573632
24 1 7.18706 7.55278 9.26201 0.182726 0.16636 -0.214425
28 1 -0.141638 10.1237 8.88141 -0.154117 0.412523 -0.872414
32 1 4.93491 10.1647 8.85818 -0.13599 -0.526883 -0.484632
36 2 -0.940984 9.47491 6.93238 0.636713 -0.150298 0.483879
40 2 4.17037 9.46769 6.94594 0.275881 -0.0359619 -0.047549
44 2 3.7177 6.82581 5.8934 0.199035 0.325736 0.270278
48 2 8.85954 6.87232 5.97103 -0.804563 -0.121517 -0.712198
52 2 3.24137 6.01849 8.56114 0.444046 -0.0208182 0.353926
56 2 8.39091 6.1267 8.45747 0.266071 -0.492095 0.615822
60 2 -1.37706 8.70537 9.62799 -0.023314 -0.436538 -0.782389
64 2 3.74314 8.67662 9.59205 0.338899 -0.625039 -0.192483
68 2 0.957452 6.4893 7.57078 -0.328495 -0.176736 0.821468
72 2 6.05913 6.49846 7.6396 -0.413642 -0.139475 -0.114455
76 2 1.84365 9.18042 5.25381 0.480046 -1.2249 -0.241154
80 2 6.97167 9.05781 5.25339 0.155499 0.771227 -0.264133
84 2 1.39105 8.93997 7.86155 -0.00939271 0.840392 0.0690934
88 2 6.51153 9.05045 7.84736 0.121461 -0.357649 0.311428
92 2 0.542766 6.3093 10.2491 -0.137531 1.0479 -0.150358
96 2 5.67591 6.44477 10.2819 -0.510979 -0.525171 -0.685576
