ITEM: TIMESTEP
80
ITEM: NUMBER OF ATOMS
96
ITEM: BOX BOUNDS xy xz yz pp pp pp
-1.8410099603662453e+00 1.0189469675090400e+01 0.0000000000000000e+00
-8.6102343287008054e-02 1.0366802343287013e+01 -1.7563804683758524e+00
-8.6056318378934016e-02 1.0361260901478929e+01 0.0000000000000000e+00
ITEM: ATOMS id type x y z fx fy fz
1 1 1.16795 2.74027 0.971869 -0.707916 0.530787 0.140383
5 1 6.30941 2.67763 1.05735 -0.187673 1.27682 -0.91047
9 1 3.3557 0.131943 1.408 0.616017 -0.112487 0.731242
13 1 8.50502 0.124988 1.42303 0.628658 -0.263811 -0.467077
17 1 2.95389 2.26602 4.07736 0.187126 1.23691 -0.485062
21 1 8.12605 2.29029 3.97573 -1.18159 0.857821 1.02968
25 1 0.6968 4.92692 3.59942 0.07023 0.0840221 -0.369902
29 1 5.81748 4.93912 3.62937 0.606963 -0.475159 -0.354997
33 2 -0.0654774 4.27602 1.67375 0.921482 -0.448001 0.305506
37 2 5.0926 4.21306 1.66187 0.674908 0.340987 0.559536
41 2 4.59793 1.63452 0.80787 -0.949461 -0.10781 -0.366778
45 2 9.58483 1.69821 0.685804 1.02555 0.347066 0.42555
49 2 4.12906 0.741381 3.54182 -0.852261 -0.300213 -1.46017
53 2 9.40077 0.905419 3.35515 -0.805114 -0.795836 -0.748846
57 2 -0.562219 3.47024 4.297 1.17728 0.0304433 0.414908
61 2 4.71152 3.35269 4.23686 -0.750788 -0.268778 0.667541
65 2 1.83568 1.32289 2.37604 0.272864 -0.580721 0.316942
69 2 6.94947 1.21992 2.40231 0.433281 0.454048 0.477658
73 2 2.7967 3.7991 0.0362058 -0.931502 0.240374 -0.246231
77 2 7.90051 3.85971 -0.0405448 -0.681616 0.0145002 0.381373
81 2 2.33491 3.85887 2.56891 -0.831463 -0.701543 0.873048
85 2 7.45795 3.84374 2.62098 -0.340059 -0.880114 -0.00625441
89 2 1.30258 1.21358 4.96928 0.324947 -0.559466 0.531975
93 2 6.40352 1.20953 4.94382 1.21175 0.278836 0.984957
2 1 0.238933 2.73172 6.21392 0.183014 0.696718 0.198922
6 1 5.4358 2.72722 6.23921 -0.457484 0.746707 -0.676222
10 1 2.51093 0.143532 6.65613 -0.442699 -0.266982 0.290258
14 1 7.65334 0.128831 6.65571 -0.00602468 -0.0481551 0.145631
18 1 2.06708 2.33929 9.26403 -0.1421 -0.0515267 0.281773
22 1 7.19499 2.3139 9.23231 -0.222097 0.0727845 0.551352
26 1 -0.186719 4.95629 8.85282 -0.352042 -0.110475 -0.752598
30 1 4.9469 4.90106 8.86152 0.300885 0.217826 -0.627374
34 2 -0.981664 4.24403 6.90023 0.633255 0.080512 0.372818
38 2 4.22974 4.23623 6.98373 -0.165769 0.0630559 -0.252484
42 2 3.60759 1.73395 6.03897 0.126889 -0.28627 -0.0804981
46 2 8.79974 1.67726 5.97351 -0.587727 -0.258441 -0.501602
50 2 3.21915 0.734774 8.66566 -0.612137 0.123906 -0.815806
54 2 8.36283 0.740966 8.59712 -0.342178 0.314345 -0.277732
58 2 -1.41461 3.45027 9.52325 0.730728 -0.255901 0.26289
62 2 3.72455 3.41912 9.53895 0.620592 -0.48552 0.371918
66 2 0.890787 1.26815 7.62665 0.35234 -0.104185 0.0430692
70 2 6.01888 1.24842 7.61842 0.241563 -0.136278 0.254495
74 2 1.90287 3.80294 5.27007 -0.80543 0.729304 -0.220767
78 2 6.92637 3.88085 5.22928 0.428024 0.282854 0.080281
82 2 1.3554 3.80566 7.89544 0.068481 -0.184228 -0.376709
86 2 6.59407 3.78026 7.8181 -0.383234 -0.0146166 0.200888
90 2 0.423209 1.16183 10.2359 0.687557 0.4376 0.379222
94 2 5.54987 1.17256 10.3156 0.190038 -0.153569 -1.01793
3 1 1.1373 7.96725 1.02991 -0.114811 0.116772 -0.45709
7 1 6.2966 7.94512 1.02478 0.125282 0.517231 -0.254021
11 1 3.43644 5.32201 1.43091 -0.525319 -0.081158 -0.470626
15 1 8.52424 5.32963 1.39876 -0.559938 0.366906 0.600712
19 1 2.97604 7.53348 4.01293 0.370745 -0.341996 0.903977
23 1 8.0446 7.54282 4.05549 0.0507168 -0.552922 -0.0773268
27 1 0.715102 10.1332 3.64344 0.101915 0.000126978 -0.826447
31 1 5.86451 10.193 3.60109 -0.259672 -0.887145 0.344911
35 2 0.0468598 9.62454 1.55765 0.110023 -0.203279 1.25435
39 2 5.16352 9.57133 1.66353 -0.291256 -0.238221 0.0669217
43 2 4.60342 6.87544 0.763851 -0.21934 0.316122 -0.212528
47 2 9.6952 6.89005 0.837487 0.102743 0.58723 -0.94144
51 2 4.11675 6.00853 3.29031 0.193085 -0.0212393 0.639965
55 2 9.25443 6.02743 3.33476 0.151637 -0.187608 0.135989
59 2 -0.497629 8.59251 4.23193 0.843303 0.529214 0.576836
63 2 4.70299 8.62628 4.27508 -0.0540981 -0.560502 0.357036
67 2 1.87161 6.47007 2.35478 -0.637476 0.431664 0.523588
71 2 6.89355 6.46031 2.46231 0.407139 0.611619 -0.870156
75 2 2.74083 9.07253 0.0720848 0.12997 0.364043 -0.100987
79 2 7.88746 9.11446 -0.010756 -0.268116 0.154076 0.63947
83 2 2.30423 9.01261 2.70815 -0.212597 0.398129 -0.805808
87 2 7.48342 9.08003 2.67749 -0.029555 -0.660634 -0.56278
91 2 1.37865 6.41482 5.03484 0.0116692 -0.274221 -0.410846
95 2 6.45444 6.4656 4.97951 0.241698 -0.288176 0.743571
4 1 0.292444 7.98609 6.20334 -0.572654 -0.606446 0.654351
8 1 5.41529 8.00875 6.25959 -0.159639 -0.954415 -0.668054
12 1 2.46275 5.34808 6.67664 0.844778 -0.0268368 0.309742
16 1 7.61754 5.35406 6.64327 -0.268565 0.274465 0.143782
20 1 2.06987 7.54113 9.31306 0.149451 -0.335315 -0.777124
24 1 7.19423 7.5532 9.26906 -0.0244095 0.305617 0.00496903
28 1 -0.178647 10.1788 8.8729 0.112256 -1.13837 -0.626618
32 1 4.93172 10.1845 8.86833 0.363268 -0.905696 0.0524042
36 2 -0.87748 9.52151 6.95419 -0.129754 -0.0156524 -0.42882
40 2 4.15049 9.4456 6.84665 0.13863 0.988017 0.863113
44 2 3.73006 6.80878 6.03434 -0.351349 0.635986 -0.99038
48 2 8.80897 6.88456 6.02585 0.065826 0.5983 -1.04234
52 2 3.27367 6.01582 8.62795 -0.91041 -0.0327155 -0.384049
56 2 8.38398 6.12424 8.53695 0.320853 -1.07823 0.10441
60 2 -1.33987 8.64597 9.55886 -0.0911801 -0.402643 0.0435287
64 2 3.80583 8.58135 9.52829 0.345367 0.351326 0.28834
68 2 0.859572 6.42784 7.62903 0.613957 0.530582 -0.389831
72 2 6.013 6.48002 7.64069 0.485672 0.143464 -0.0612355
76 2 1.83479 9.08356 5.23823 -0.0374157 0.503837 0.182602
80 2 7.05877 9.14613 5.25036 -0.454869 -0.216259 0.178906
84 2 1.44526 8.9788 7.85987 -0.359235 0.305681 0.0996001
88 2 6.47515 9.05495 7.86156 0.455336 -0.212604 -0.143106
92 2 0.488492 6.40805 10.1791 0.0386719 -0.0972731 1.02062
96 2 5.6579 6.43902 10.2333 -0.218398 -0.318993 0.509613
