ITEM: TIMESTEP
90
ITEM: NUMBER OF ATOMS
96
ITEM: BOX BOUNDS xy xz yz pp pp pp
-1.8486648122495015e+00 1.0195174143458514e+01 0.0000000000000000e+00
-9.1906089500641386e-02 1.0372606089500646e+01 -1.7583308518909966e+00
-9.1856962274142973e-02 1.0367061545374138e+01 0.0000000000000000e+00
ITEM: ATOMS id type x y z fx fy fz
1 1 1.17253 2.72269 0.985502 -0.697588 0.330031 0.596871
5 1 6.28327 2.68349 1.05174 0.0672636 0.836304 -0.781171
9 1 3.36777 0.116747 1.37959 -0.278821 -0.0421906 1.56598
13 1 8.52756 0.104076 1.44144 -0.0628541 0.184523 -0.946036
17 1 2.95337 2.28973 4.07167 -0.0334857 0.193158 -0.822389
21 1 8.12216 2.30984 3.97644 -0.188636 0.712514 1.23918
25 1 0.734043 4.95184 3.63026 -0.388895 -0.156346 -0.851923
29 1 5.83443 4.9462 3.62217 0.645103 -0.571961 0.127889
33 2 0.0527767 4.32181 1.70352 -0.83412 0.0660447 -0.674617
37 2 5.18331 4.32068 1.68438 -0.441597 0.139794 -0.394766
41 2 4.45405 1.73546 0.78317 1.01482 0.198643 0.103629
45 2 9.57227 1.76924 0.74844 0.460326 -0.303055 -0.034651
49 2 4.02674 0.647965 3.45054 0.592688 0.159987 -0.625653
53 2 9.24478 0.769586 3.25095 0.160238 0.287804 1.25704
57 2 -0.421627 3.42397 4.31031 -0.797545 -0.892598 0.134016
61 2 4.76346 3.28124 4.25625 -0.248466 0.43083 -0.197385
65 2 1.82037 1.27229 2.35906 -0.0264993 0.110974 0.126548
69 2 6.96276 1.28734 2.45571 -0.397381 -0.442348 -0.388132
73 2 2.72904 3.82752 0.0203781 0.377969 0.932603 -0.122343
77 2 7.82416 3.88722 -0.0308029 0.312885 -0.427982 0.307348
81 2 2.28576 3.85976 2.58932 0.652135 -0.471828 0.241548
85 2 7.47645 3.79285 2.60715 -0.192311 -0.0674958 -0.174967
89 2 1.36049 1.17877 4.99237 -0.538341 -0.266719 0.209298
93 2 6.50309 1.20115 5.05108 -0.0665167 -0.0546613 -0.538491
2 1 0.233401 2.706 6.24098 0.274447 0.614871 -0.298416
6 1 5.47043 2.7353 6.20777 -0.812149 0.160713 -0.315244
10 1 2.51815 0.10943 6.66929 -1.05932 0.174026 -0.763168
14 1 7.64258 0.113776 6.68986 -0.000549263 0.131905 -0.869175
18 1 2.081 2.34348 9.28776 -0.542821 -0.575347 -0.820632
22 1 7.20533 2.33667 9.25936 -0.204546 -0.011625 0.451221
26 1 -0.189798 4.96422 8.8805 0.440676 -0.661161 -0.437843
30 1 4.94725 4.9059 8.85717 -0.0722591 0.284051 -0.818564
34 2 -0.884331 4.31964 6.97331 -0.205244 -0.158801 -0.694443
38 2 4.25225 4.33287 6.88889 0.0171468 -0.254719 0.282813
42 2 3.61242 1.7436 5.94184 0.645937 -0.268353 0.972808
46 2 8.72571 1.73671 5.94044 0.795377 -0.186648 0.286696
50 2 3.09618 0.647533 8.58104 1.01285 0.772565 1.09579
54 2 8.29044 0.712724 8.59326 0.767495 0.0211994 0.509079
58 2 -1.31075 3.33056 9.53977 -0.213453 0.0980377 -0.284312
62 2 3.83643 3.3192 9.52747 -0.295597 -0.0220291 0.000685364
66 2 0.902714 1.2453 7.63059 -0.443722 0.336472 -0.128355
70 2 6.09675 1.26254 7.63645 -0.671488 0.22542 0.233273
74 2 1.87085 3.84946 5.19404 -0.137697 0.582778 0.795572
78 2 6.95751 3.90637 5.21695 0.570459 0.176812 0.199588
82 2 1.37148 3.77153 7.8533 0.461901 0.124785 0.0630804
86 2 6.61959 3.82056 7.82352 -0.589761 -0.233488 0.307903
90 2 0.489321 1.19634 10.2035 -0.29667 -0.227646 0.278753
94 2 5.53763 1.17033 10.2697 0.177371 0.0156565 0.05426
3 1 1.11313 7.98774 1.06069 0.673169 0.157241 -0.535769
7 1 6.29861 7.95157 1.01614 0.337903 0.401223 -0.330026
11 1 3.40855 5.32425 1.37414 -0.392603 0.501845 1.09243
15 1 8.52781 5.32028 1.388 0.566984 0.524249 0.952686
19 1 2.97204 7.52149 4.02558 0.172592 0.873931 0.339021
23 1 8.03684 7.54411 4.0679 0.422922 -0.256327 -0.772384
27 1 0.658295 10.1452 3.63139 1.6331 0.185063 -0.0591436
31 1 5.86026 10.2 3.56291 -0.70214 -0.673571 1.62197
35 2 0.0530443 9.66288 1.68423 -0.266684 -0.709502 -0.676721
39 2 5.18574 9.58397 1.70319 -0.265979 -0.084516 -0.770873
43 2 4.5406 6.98777 0.72032 -0.24256 -0.829897 0.670739
47 2 9.66165 7.00968 0.782128 -0.719951 -0.694514 -0.0958849
51 2 4.12243 5.94562 3.39692 -0.582379 0.0697354 -0.718901
55 2 9.19844 5.94641 3.34807 0.279951 0.257405 0.160545
59 2 -0.388934 8.55179 4.24989 -0.931221 -0.0579105 -0.107135
63 2 4.76865 8.51455 4.30447 0.159831 0.562209 -0.142568
67 2 1.78066 6.52615 2.40578 0.622592 -0.182783 0.00918794
71 2 6.98734 6.51122 2.40533 -0.606339 -0.317221 0.156802
75 2 2.73929 9.10426 0.121897 -0.324351 0.0157862 -1.11984
79 2 7.85623 9.09039 -0.0148261 0.514852 0.282664 0.533294
83 2 2.32466 9.06246 2.68172 -0.427464 -0.276616 -0.0774925
87 2 7.45041 9.01863 2.64452 0.134398 0.385074 -0.319862
91 2 1.36686 6.44193 4.98099 -0.0190505 -0.519615 0.691403
95 2 6.47584 6.41161 5.08951 0.0395059 0.0774807 -0.616196
4 1 0.271506 7.95793 6.18622 0.166411 0.483395 0.553021
8 1 5.40564 7.9713 6.28998 -0.254742 0.298697 -1.19488
12 1 2.45119 5.34456 6.6427 0.795892 -0.0230443 0.124791
16 1 7.63499 5.3612 6.65571 0.265986 -0.137021 0.117662
20 1 2.06141 7.54249 9.28653 -0.110535 0.793701 -0.38981
24 1 7.19863 7.55541 9.27022 0.0985777 -0.325579 0.290529
28 1 -0.204928 10.2064 8.84433 0.629744 -1.14183 -0.271677
32 1 4.93364 10.1786 8.8706 0.0216672 -0.438286 -0.488296
36 2 -0.825593 9.55933 6.90296 -0.6791 0.228312 -0.147021
40 2 4.21707 9.57849 6.91646 1.02325 -0.598743 0.00850364
44 2 3.67013 6.91912 5.98719 -0.447542 -0.274241 0.266112
48 2 8.74845 6.98559 5.89082 0.603488 -0.65031 1.39824
52 2 3.16195 5.98176 8.61992 0.406702 -0.635435 -0.200789
56 2 8.39459 5.92866 8.64331 -1.32308 0.926604 -0.252552
60 2 -1.30787 8.51056 9.4684 0.281905 0.915921 0.258831
64 2 3.91939 8.52799 9.50333 -1.04725 0.0677319 -0.0612259
68 2 0.879938 6.47128 7.63241 0.107794 0.317025 -0.104699
72 2 6.05566 6.47929 7.639 0.311294 -0.0435201 0.502275
76 2 1.84418 9.05251 5.25753 0.132405 0.510472 0.228633
80 2 7.04629 9.18528 5.26148 -0.376047 -0.735672 -0.227627
84 2 1.42714 9.07238 7.88845 -0.154696 -0.802767 0.31342
88 2 6.52778 9.00474 7.86 0.0366446 0.287716 0.124903
92 2 0.459051 6.49018 10.2882 0.360467 -1.03878 -0.24372
96 2 5.59103 6.36148 10.2602 0.364943 0.318722 0.0519123
