125
energy=-767.80938844 config_type=nep2xyz pbc="T T T" virial="221.24913834 21.62820678 57.1558249 21.62820678 246.84791177000002 -13.76854895 57.1558249 -13.76854895 155.65471859" Lattice="9.158616 0.0 0.0 0.0 9.158616 0.0 0.0 0.0 9.158616" Properties=species:S:1:pos:R:3:forces:R:3
C 5.58246953 1.38810732 3.89455492 4.4023939 1.50400999 0.64697591
C 6.92753135 7.40435637 2.67809838 1.41444599 -0.73938804 3.47825195
C 4.44118691 8.1056316 2.66665927 1.18450921 -1.57878739 -1.85743575
C 4.02085223 6.83423253 6.4994668 -6.17175137 4.67491463 -2.65754735
C 3.6727424 2.91318174 8.49588939 -5.8336765 4.42191736 5.09425193
C 2.9242545 8.27137507 4.67770817 0.23624014 -1.02511365 0.27671769
C 4.66908075 4.5721826 6.57384392 -1.81077531 7.73981228 0.88661295
C 1.49203013 0.34616821 7.70696621 -1.9481493 1.72089952 -2.45851714
C 6.21724404 5.92603669 5.46028443 11.9034473 6.71881154 5.52577131
C 0.67334145 7.37166927 4.7964771 4.7835152 -1.55380711 -3.54004595
C 7.10129777 6.39972031 7.00378599 -2.42381799 -5.17489 4.47525085
C 8.77818541 6.71229471 3.9444419 6.0883358 -8.32040426 8.1118166
C 5.72462041 0.99857306 6.76827218 -1.48933115 -14.2516623 3.23514656
C 3.19082518 7.84614053 7.18809397 -2.19901527 4.68634796 0.69139057
C 2.61451927 0.53907614 1.83632083 1.48584693 -0.90834003 4.56693981
C 0.61838059 6.91819872 0.28116035 3.76935844 5.07976388 3.09277258
C 6.54713739 6.12592348 8.63797616 -6.67353558 -6.79421923 -8.34906172
C 4.07047361 3.30597646 4.26505757 4.4002305 4.94970159 1.07890801
C 0.43926554 0.74159145 6.62460097 3.91477955 -0.23763548 -6.02126825
C 7.50518358 3.53615995 5.71763238 3.82819735 -0.90128363 -3.49457136
C 1.59114467 8.79426794 1.56659043 -0.27111677 -0.09111517 -1.62410044
C 5.3402974 8.75630547 0.13178333 -1.95272208 2.77076684 2.75850422
C 2.46939184 5.09823518 1.01741233 -0.04437562 -1.57438851 6.37005267
C 7.72597949 5.11877796 7.36110939 1.53580537 3.49120894 -4.82809024
C 8.12746574 5.90663874 5.00579727 -1.32507967 -5.61653248 -2.06140662
C 4.84792105 0.43038168 4.64962785 1.2456492 -1.51211171 -1.62573547
C 8.61529942 1.61090897 1.7376001 -2.85691492 -2.06190168 -0.59963495
C 1.29457953 4.58922678 3.19748349 3.56580574 3.09936513 1.77382857
C 3.29766044 2.04018246 7.41872624 7.15148564 0.11383538 4.84056569
C 6.09658844 6.48886112 3.55786587 3.19510856 5.71685672 -3.40069274
C 5.25916122 5.25025905 5.24525845 -13.2203308 -10.8993328 5.36940724
C 4.70012846 0.98345219 8.17797551 1.44871608 -0.12689176 -4.2411652
C 3.99026245 8.8179796 3.83350358 -1.31021147 2.47627854 -2.91178371
C 8.13142226 0.58994309 8.64030244 2.77732683 -0.65533295 -0.24357609
C 1.14890258 6.97351676 7.09990566 -2.75288552 -4.54222982 3.32541953
C 3.04273036 8.04480923 8.77288257 1.24168157 -3.41924392 -2.05889638
C 7.02655431 3.88851939 2.79296574 4.26122746 -4.47137264 0.06711565
C 0.94744051 3.84343152 4.50119416 2.16492894 -2.08277007 -3.5290636
C 5.25715549 5.31158514 1.43251745 2.4247878 -3.77231016 2.59312656
C 8.46423721 1.55771573 6.28414773 -4.87526779 -13.7346852 8.47238302
C 1.81343344 8.12555159 7.01883359 -1.75328107 0.5766177 2.11487138
C 4.01566845 2.62401675 6.46824507 7.24282897 -5.49149594 -2.78454437
C 7.01064579 3.81096423 1.34604179 2.95444182 4.17805123 -3.30182364
C 3.10589733 6.8861802 5.09486481 -1.39965167 -3.72312181 1.61138055
C 8.63741748 4.4958089 2.37201743 -0.71803385 3.3575215 -1.22439078
C 3.26063215 9.02065061 6.18678249 1.97509434 1.68959514 0.03476401
C 5.50375122 2.07909742 6.17146928 -1.10244461 10.7268607 -5.57215514
C 7.89849118 7.64953252 3.85044702 -4.20596943 7.44408425 -7.22408864
C 8.0046487 8.3956117 8.72071509 0.21304809 -8.28444675 0.79683577
C 5.08009196 3.39245211 8.62251641 2.39638798 -2.0819942 0.57181239
C 3.21344696 0.96269876 3.1304699 -0.17704329 -8.20404705 -2.02068833
C 8.26054959 7.92667224 6.35406461 -3.47597642 2.12281814 -2.69490542
C 0.55212717 4.86363723 8.87381968 -4.69132744 -4.63174535 -3.65429247
C 2.80611751 2.10105062 3.56976292 -4.70213676 1.39864824 0.38948032
C 5.79755047 3.81018575 0.77733753 -10.6918243 1.14778246 2.07828781
C 3.14331944 2.50169428 0.63374875 0.8096063 -5.3714568 2.86380505
C 6.57028122 2.90379415 6.75797789 -0.1867474 6.87826641 -0.06781318
C 6.09847511 7.2371292 5.26385044 -5.45402187 6.50648059 0.50875776
C 5.63681676 2.81742841 4.71136608 -2.52830553 -3.60787433 -4.43983971
C 1.06772977 4.16088747 5.92930632 -5.67222022 -0.3330222 -4.76662511
C 0.34081958 4.05396063 1.12426591 2.19109201 -0.91105912 5.13840113
C 2.6787578 1.10611353 6.74467958 -8.35112057 -4.56564696 -1.51861725
C 4.48644879 5.05345871 4.12367601 1.61839964 -1.05049248 -1.42897678
C 3.00098539 4.28164382 6.6353715 1.14474705 3.89892532 -3.43638497
C 2.63581305 5.32470944 8.91324752 0.74690465 2.03527951 -6.01845028
C 1.17028795 6.11276255 8.51299768 1.60031383 -4.69050753 -1.72738971
C 5.01006519 7.69308174 6.17630503 8.33339729 2.12382097 -5.23748888
C 7.27151981 6.95201233 9.11170557 4.33222112 12.8786927 6.56681289
C 8.23662729 4.83613391 5.92524905 1.96306713 -1.5736423 3.6423837
C 3.40079561 5.95063673 4.02495529 1.79515675 -0.09965958 2.11312041
C 6.95820355 2.34317695 8.03840736 2.72708357 -0.72833288 1.01382064
C 2.97105503 6.16694492 1.80504415 -1.11205518 -0.9350155 1.94961793
C 1.75475419 3.99272612 1.75537698 -1.78830076 2.81943515 2.73689637
C 7.4897971 1.16912481 7.46674487 -0.56022542 -0.28868418 -3.37436212
C 0.52479786 1.13786645 8.62609743 0.25790194 -0.21096249 -2.23291649
C 1.59407543 8.03458822 0.11517875 -0.13045343 2.40290804 4.23340556
C 6.50957791 7.70251512 0.98405665 11.6658644 -0.30295686 2.70497145
C 4.34775071 6.05807646 7.4899528 3.29090803 -5.80288599 5.45199069
C 6.87853275 3.66954604 4.32752849 -4.05588905 2.11384451 0.91311769
C 6.07022078 1.65158238 2.31277951 -0.41973461 0.82613433 2.25551703
C 5.25566263 7.66009241 1.22052296 -10.8681648 2.33902056 3.30757231
C 5.54849106 3.76901777 7.22207244 -0.7469886 1.956205 4.69419848
C 5.56004008 2.97149464 2.10766314 -4.83619753 1.75768354 0.68901115
C 0.07814131 2.63636257 0.9756582 -1.66557487 4.32527132 -4.09596536
C 0.67155552 2.95532969 6.55130456 3.4035059 3.28137015 -1.7914274
C 8.03264659 3.05166001 8.90745927 0.57402148 2.32701512 -2.12789148
C 1.59434103 6.29056792 5.47696227 2.10501541 7.41044965 0.45928491
C 4.44071066 6.34051902 1.02615881 -0.85670103 2.8320356 0.96435391
C 1.83045015 5.2343139 6.24010395 2.16270296 -4.62808725 -0.32175212
C 5.51575817 5.44783787 3.03629185 -5.96812776 -5.40309734 -6.34906639
C 3.19902214 1.11752517 0.8297065 1.61612784 2.86772592 -5.78187955
C 0.27861426 8.60423581 5.78505811 -2.13104172 2.01822607 -4.04355442
C 7.011928 8.35302414 4.98812114 1.25538536 -2.23380678 -2.91007506
C 1.40643371 2.32638921 4.39325072 3.98941953 0.00549985 -2.89054616
C 0.67255381 6.61316186 1.81354335 -2.84520364 5.50374141 0.21606531
C 8.36662468 0.4369942 4.89455672 -0.56064085 0.975488 0.98585241
C 0.78246636 1.24119396 3.58075326 -5.00918357 -0.13701415 -1.683764
C 2.76238512 2.97831781 2.09517995 -3.92295827 1.29477729 -6.05824307
C 6.90929654 5.39838135 4.17506501 1.98061629 -1.01727053 2.82785235
C 8.71867272 7.75257611 2.31047153 -4.43611706 4.65935961 -2.11260594
C 3.69732412 6.51241708 9.00750799 0.39889368 -1.76550304 -6.71208189
C 2.64269117 3.95861028 8.00645295 -0.63342145 2.35133964 1.31301476
C 0.40862081 0.59837818 2.28654007 3.75643847 0.47609931 2.05904096
C 0.99583463 3.69043684 8.04090766 5.79821774 -1.7370355 -0.68287706
C 4.78316047 9.1027576 5.97726999 -0.87996551 1.38909264 2.18025631
C 7.60886827 0.79537085 0.92730987 -0.78184599 1.98387011 -2.26423244
C 3.78773798 0.11210146 9.03739256 2.819147 2.15466042 1.12255023
C 0.44759072 2.6466019 8.70111565 -2.47545569 -9.53389961 2.96761171
C 1.8005198 7.72176653 3.8161938 -0.69633691 2.6062257 -0.41063541
C 1.92620348 7.52713678 2.20521156 -2.14027463 -2.73979525 4.07265519
C 3.78937737 2.98318104 2.90667912 6.90045468 2.595593 1.91304019
C 7.6208569 8.67192715 1.51839779 -0.21608894 -4.49863199 -0.23180592
C 2.58268392 5.48942715 3.05359248 -0.12187618 1.68169958 2.01043205
C 1.40212916 1.73458692 5.69653093 2.74555267 -0.17044657 8.75077764
C 8.9848221 7.29455373 7.12048507 -0.76574755 -3.24744416 4.52125996
C 3.40096962 3.18671296 5.52660197 -3.40820409 3.58334512 -2.80768752
C 7.58295854 1.99959147 2.78450318 2.88649865 -0.82194646 0.88240227
C 8.4493453 1.6686632 4.09195057 0.88075134 -0.63404486 -2.22576987
C 0.21992585 5.66866126 2.91085545 -0.33571465 -0.15548282 -2.14748724
C 5.94832876 1.195639 0.82982556 4.5278096 -5.88634154 3.58390428
C 6.47102013 0.42157109 4.5837774 0.07354591 -1.60291086 -0.35650987
C 7.44305153 5.25125734 0.89785576 1.94606956 -1.50007572 -2.06608797
C 8.61719526 2.47890764 5.42090238 -3.15800635 8.28419651 -3.01894324
C 8.31906399 4.65972981 8.49724486 -3.09274865 -2.13929759 5.29324784
C 5.71660662 1.8779101 8.78445906 -2.61415626 3.83668404 0.08359097
2
energy=-5.62692901 config_type=nep2xyz pbc="T T T" Lattice="10.0 0.0 0.0 0.0 10.0 0.0 0.0 0.0 10.0" Properties=species:S:1:pos:R:3:forces:R:3
C 0.0 0.0 0.0 0.0 -15.1449499 -0.0
C 0.0 1.1206897 0.0 -0.0 15.1449499 0.0
64
energy=-429.07789829 config_type=nep2xyz pbc="T T T" Lattice="13.4997 0.0 0.0 0.0 13.4997 0.0 0.0 0.0 13.4997" Properties=species:S:1:pos:R:3:forces:R:3
C 1.16056921 8.96420579 8.96420579 -1.04586251 1.04586251 1.04586251
C 0.34977723 7.09962723 7.09962723 0.95278493 0.95278493 0.95278493
C 3.02514777 9.77499777 7.09962723 -0.95278493 -0.95278493 0.95278493
C 9.77499777 0.34977723 9.77499777 -0.95278493 0.95278493 -0.95278493
C 9.77499777 9.77499777 0.34977723 -0.95278493 -0.95278493 0.95278493
C 7.09962723 3.02514777 9.77499777 0.95278493 -0.95278493 -0.95278493
C 7.09962723 9.77499777 3.02514777 0.95278493 -0.95278493 -0.95278493
C 9.77499777 3.02514777 7.09962723 -0.95278493 -0.95278493 0.95278493
C 7.09962723 7.09962723 0.34977723 0.95278493 0.95278493 0.95278493
C 7.09962723 0.34977723 7.09962723 0.95278493 0.95278493 0.95278493
C 9.77499777 7.09962723 3.02514777 -0.95278493 0.95278493 -0.95278493
C 3.72470223 13.1499228 3.72470223 0.95278493 -0.95278493 0.95278493
C 13.1499228 3.72470223 3.72470223 -0.95278493 0.95278493 0.95278493
C 13.1499228 13.1499228 13.1499228 -0.95278493 -0.95278493 -0.95278493
C 3.02514777 7.09962723 9.77499777 -0.95278493 0.95278493 -0.95278493
C 3.72470223 3.72470223 13.1499228 0.95278493 0.95278493 -0.95278493
C 3.02514777 0.34977723 3.02514777 -0.95278493 0.95278493 -0.95278493
C 0.34977723 0.34977723 0.34977723 0.95278493 0.95278493 0.95278493
C 3.02514777 3.02514777 0.34977723 -0.95278493 -0.95278493 0.95278493
C 3.72470223 6.40007277 10.4745522 0.95278493 -0.95278493 0.95278493
C 10.4745522 13.1499228 10.4745522 0.95278493 -0.95278493 0.95278493
C 10.4745522 6.40007277 3.72470223 0.95278493 -0.95278493 0.95278493
C 13.1499228 10.4745522 10.4745522 -0.95278493 0.95278493 0.95278493
C 6.40007277 3.72470223 10.4745522 -0.95278493 0.95278493 0.95278493
C 6.40007277 10.4745522 3.72470223 -0.95278493 0.95278493 0.95278493
C 13.1499228 6.40007277 6.40007277 -0.95278493 -0.95278493 -0.95278493
C 6.40007277 13.1499228 6.40007277 -0.95278493 -0.95278493 -0.95278493
C 6.40007277 6.40007277 13.1499228 -0.95278493 -0.95278493 -0.95278493
C 3.72470223 10.4745522 6.40007277 0.95278493 0.95278493 -0.95278493
C 0.34977723 3.02514777 3.02514777 0.95278493 -0.95278493 -0.95278493
C 0.34977723 9.77499777 9.77499777 0.95278493 -0.95278493 -0.95278493
C 11.2853442 11.2853442 12.3391308 -1.04586251 -1.04586251 1.04586251
C 11.2853442 4.53549421 5.58928079 -1.04586251 -1.04586251 1.04586251
C 2.21435579 7.91041921 8.96420579 1.04586251 -1.04586251 1.04586251
C 1.16056921 7.91041921 7.91041921 -1.04586251 -1.04586251 -1.04586251
C 2.21435579 8.96420579 7.91041921 1.04586251 1.04586251 -1.04586251
C 8.96420579 1.16056921 8.96420579 1.04586251 -1.04586251 1.04586251
C 8.96420579 8.96420579 1.16056921 1.04586251 1.04586251 -1.04586251
C 7.91041921 2.21435579 8.96420579 -1.04586251 1.04586251 1.04586251
C 7.91041921 8.96420579 2.21435579 -1.04586251 1.04586251 1.04586251
C 8.96420579 2.21435579 7.91041921 1.04586251 1.04586251 -1.04586251
C 7.91041921 7.91041921 1.16056921 -1.04586251 -1.04586251 -1.04586251
C 7.91041921 1.16056921 7.91041921 -1.04586251 -1.04586251 -1.04586251
C 8.96420579 7.91041921 2.21435579 1.04586251 -1.04586251 1.04586251
C 4.53549421 12.3391308 4.53549421 -1.04586251 1.04586251 -1.04586251
C 12.3391308 4.53549421 4.53549421 1.04586251 -1.04586251 -1.04586251
C 12.3391308 12.3391308 12.3391308 1.04586251 1.04586251 1.04586251
C 4.53549421 4.53549421 12.3391308 -1.04586251 -1.04586251 1.04586251
C 1.16056921 2.21435579 2.21435579 -1.04586251 1.04586251 1.04586251
C 2.21435579 1.16056921 2.21435579 1.04586251 -1.04586251 1.04586251
C 1.16056921 1.16056921 1.16056921 -1.04586251 -1.04586251 -1.04586251
C 2.21435579 2.21435579 1.16056921 1.04586251 1.04586251 -1.04586251
C 4.53549421 5.58928079 11.2853442 -1.04586251 1.04586251 -1.04586251
C 11.2853442 12.3391308 11.2853442 -1.04586251 1.04586251 -1.04586251
C 11.2853442 5.58928079 4.53549421 -1.04586251 1.04586251 -1.04586251
C 12.3391308 11.2853442 11.2853442 1.04586251 -1.04586251 -1.04586251
C 5.58928079 4.53549421 11.2853442 1.04586251 -1.04586251 -1.04586251
C 5.58928079 11.2853442 4.53549421 1.04586251 -1.04586251 -1.04586251
C 12.3391308 5.58928079 5.58928079 1.04586251 1.04586251 1.04586251
C 5.58928079 12.3391308 5.58928079 1.04586251 1.04586251 1.04586251
C 5.58928079 5.58928079 12.3391308 1.04586251 1.04586251 1.04586251
C 4.53549421 11.2853442 5.58928079 -1.04586251 -1.04586251 1.04586251
C 10.4745522 3.72470223 6.40007277 0.95278493 0.95278493 -0.95278493
C 10.4745522 10.4745522 13.1499228 0.95278493 0.95278493 -0.95278493
20
energy=-130.06626593 config_type=nep2xyz pbc="T T T" Lattice="8.35401 0.0 0.0 0.0 8.75581 0.0 0.0 0.0 8.505224" Properties=species:S:1:pos:R:3:forces:R:3
C 5.710166 3.72909598 3.32131804 3.8692602 -1.76784954 -2.61677561
C 2.59837204 5.030634 5.14362803 -3.19120976 1.70634424 2.94996408
C 3.67931201 5.00652601 5.97878404 -1.16487266 2.88722465 3.95368633
C 4.64755196 5.78209798 5.40881598 0.39439471 4.15980496 2.97436134
C 5.72378796 5.005056 5.11942199 3.93300408 1.00201457 2.37097847
C 4.18371803 3.73948396 6.05522397 0.04556335 -2.88665688 4.12884226
C 5.43625597 3.72625402 5.51759601 2.96585506 -0.92134197 3.07859921
C 5.43449202 2.95127001 4.39863198 2.79954723 -4.87759853 0.2850389
C 2.44999998 3.747324 4.70370603 -4.13406649 -2.0640891 0.94431994
C 3.41804403 2.94842796 5.25417204 -2.51461323 -2.96161371 3.04616303
C 4.17019398 2.44999997 4.23193401 1.43181877 -4.7998623 0.05428242
C 2.92843597 5.00858398 2.98782404 -2.71372016 1.39612172 -3.59292458
C 2.64021803 3.72850802 3.36169404 -4.20602332 -0.92045642 -2.1895039
C 3.694796 2.9204 3.04760403 -1.40692371 -3.48456304 -3.05468116
C 4.94958802 5.81051802 3.23115799 2.03136649 3.01616812 -3.20270497
C 4.18381602 5.00740799 2.45000003 -1.12196802 2.52798626 -4.51375422
C 4.63353803 3.72066798 2.48214399 2.41512478 -2.27785651 -3.99490294
C 5.90401002 5.00280199 3.77643002 4.24993513 1.86178644 -1.12920281
C 2.90246602 5.83188203 4.0768 -3.55365319 3.79781361 -0.46598272
C 4.16245198 6.30581003 4.23281601 -0.12881926 4.60662342 0.97419692
32
energy=-215.35756504 config_type=nep2xyz pbc="T T T" Lattice="7.511 0.0 0.0 0.0 7.511 0.0 0.0 0.0 7.511" Properties=species:S:1:pos:R:3:forces:R:3
C 6.76499997 4.59900002 0.806 2.09851684 -0.57129847 -1.43733033
C 2.57599998 3.29399997 0.16100001 1.66420455 -1.4056043 1.47193003
C 6.81699997 4.75800001 5.35400003 4.62933508 1.43829125 2.76006358
C 2.69300002 6.10999998 5.951 1.76448931 0.3958856 0.88991531
C 6.45300001 0.37999997 1.01800001 1.92008953 -1.24913577 2.0773572
C 5.68599998 5.24199998 1.11200002 3.12357953 -2.53630238 -1.37712438
C 3.59299997 2.93199997 6.90700001 -0.11905554 0.72647852 -0.08384578
C 2.39599999 6.08 2.47500001 5.95793763 0.39627683 -2.09560242
C 6.72100001 1.62099998 5.49800002 -0.02186415 -1.00419727 -0.78723131
C 3.23799999 2.76500002 2.68700001 1.58285884 0.51591063 0.06551951
C 3.523 7.05499998 5.98300002 -1.33804887 -1.10883786 -0.25112368
C 5.77399998 4.55700001 4.778 2.83171629 3.33365831 3.63525716
C 0.58100004 5.89699997 4.143 0.18391421 3.01708993 -3.78162607
C 0.873 2.43500003 3.66599998 -0.28622787 -1.05995643 -0.19909759
C 7.39999996 6.61099998 3.04599997 3.19065643 -2.8871109 5.02283149
C 1.79500004 2.78799998 2.70599999 -2.90063929 -2.5045444 3.25407343
C 0.07699999 1.78599998 4.55700001 1.62339907 2.55913795 -1.51240054
C 1.30999997 6.31199999 3.03599998 -2.01119026 -0.1243405 2.63676338
C 6.78099998 7.17700003 2.16000001 -4.38723935 5.69748434 -7.24347584
C 2.55800001 2.743 1.50900001 -0.28479454 1.0108897 -0.22022737
C 1.56299997 4.12499996 7.27799999 0.12337339 2.22749173 -1.43014755
C 6.416 0.97800002 7.38900003 -1.75607876 -0.19686518 -0.35729709
C 5.07699999 3.87100003 4.06800004 -5.59100675 -4.49605185 -4.52461912
C 0.42500002 4.19700004 0.41400001 -4.38704465 1.09971363 1.57819026
C 4.25099999 2.02 6.32099997 -0.21779353 0.35799892 -0.12418519
C 3.66400002 6.06899999 2.21800003 -5.50998633 0.70781323 1.17299367
C 0.69400003 5.30200003 5.331 -5.90064818 -1.39400868 0.50755526
C 4.19299998 0.67200001 6.02699998 -0.13706221 -1.35104708 -1.29895232
C 4.32299999 3.14399997 3.41700004 -1.01614211 -0.75069099 -1.10555006
C 1.73899997 5.17999998 6.194 0.40236137 -1.27125449 0.64043134
C 5.491 1.25100001 6.17699998 4.53699145 0.40196656 2.39174988
C 4.732 5.73699997 1.70000001 0.23139888 0.02515941 -0.27479486
56
energy=-436.48632543 config_type=nep2xyz pbc="T T T" Lattice="33.5455811 0.0 0.0 0.0 17.0162062 0.0 0.0 0.0 2.45549808" Properties=species:S:1:pos:R:3:forces:R:3
C 5.72412807 0.58084565 0.61387452 0.26345632 0.0 0.0
C 26.447048 2.30838331 1.84162356 0.93234515 -1.13062816 -0.0
C 7.09853279 15.869514 1.84162356 -0.93234515 1.13062816 0.0
C 23.8713234 10.8164864 1.84162356 -0.93234515 -1.13062816 0.0
C 9.67425745 7.36141093 1.84162356 0.93234515 1.13062816 -0.0
C 9.67425745 10.8164864 1.84162356 0.93234515 -1.13062816 -0.0
C 23.8713234 7.36141093 1.84162356 -0.93234515 1.13062816 0.0
C 7.80142342 3.54488432 1.84162356 0.67086811 1.22403432 0.0
C 25.7441577 14.6330134 1.84162356 -0.67086811 -1.22403432 -0.0
C 25.7441577 3.54488432 1.84162356 -0.67086811 1.22403432 -0.0
C 7.80142342 14.6330134 1.84162356 0.67086811 -1.22403432 -0.0
C 24.5742137 12.0529873 1.84162356 0.67086811 1.22403432 0.0
C 26.447048 15.869514 1.84162356 0.93234515 1.13062816 -0.0
C 8.97136716 6.12491027 1.84162356 -0.67086811 -1.22403432 -0.0
C 24.5742137 6.12491027 1.84162356 0.67086811 -1.22403432 -0.0
C 2.81099357 0.58084565 0.61387452 0.08722172 0.0 -0.0
C 30.7345876 0.58084565 0.61387452 -0.08722172 0.0 -0.0
C 19.5837838 9.08894877 0.61387452 0.08722172 0.0 -0.0
C 13.961797 9.08894877 0.61387452 -0.08722172 0.0 -0.0
C 1.42317396 0.58084565 0.61387452 -0.09063833 0.0 0.0
C 32.1224062 0.58084565 0.61387452 0.09063833 0.0 -0.0
C 18.1959652 9.08894877 0.61387452 -0.09063833 0.0 -0.0
C 15.3496166 9.08894877 0.61387452 0.09063833 0.0 -0.0
C 0.69454583 0.58084565 1.84162356 0.24405728 0.0 0.0
C 32.8510353 0.58084565 1.84162356 -0.24405728 0.0 -0.0
C 8.97136716 12.0529873 1.84162356 -0.67086811 1.22403432 -0.0
C 7.09853279 2.30838331 1.84162356 -0.93234515 -1.13062816 0.0
C 24.8726452 5.48244638 0.61387452 -0.58700006 1.19607248 0.0
C 8.6729356 12.6954515 0.61387452 0.58700006 -1.19607248 -0.0
C 27.8214534 0.58084565 0.61387452 -0.26345632 0.0 -0.0
C 22.496918 9.08894877 0.61387452 0.26345632 0.0 0.0
C 11.0486628 9.08894877 0.61387452 -0.26345632 0.0 -0.0
C 4.91289125 0.58084565 1.84162356 -0.103362 0.0 -0.0
C 28.6326892 0.58084565 1.84162356 0.103362 0.0 0.0
C 21.6856822 9.08894877 1.84162356 -0.103362 0.0 -0.0
C 11.8598986 9.08894877 1.84162356 0.103362 0.0 0.0
C 3.54733216 0.58084565 1.84162356 0.02011133 0.0 -0.0
C 29.9982497 0.58084565 1.84162356 -0.02011133 0.0 -0.0
C 20.3201217 9.08894877 1.84162356 0.02011133 0.0 -0.0
C 13.2254581 9.08894877 1.84162356 -0.02011133 0.0 -0.0
C 6.69513208 1.74253626 0.61387452 0.11288911 1.19463862 0.0
C 26.8504484 16.4353606 0.61387452 -0.11288911 -1.19463862 -0.0
C 26.8504484 1.74253626 0.61387452 -0.11288911 1.19463862 -0.0
C 6.69513208 16.4353606 0.61387452 0.11288911 -1.19463862 -0.0
C 23.467923 10.2506399 0.61387452 0.11288911 1.19463862 0.0
C 10.0776578 7.92725798 0.61387452 -0.11288911 -1.19463862 -0.0
C 10.0776578 10.2506399 0.61387452 -0.11288911 1.19463862 0.0
C 23.467923 7.92725798 0.61387452 0.11288911 -1.19463862 0.0
C 8.09985497 4.18734786 0.61387452 -0.58700006 -1.19607248 -0.0
C 25.4457262 13.990549 0.61387452 0.58700006 1.19607248 0.0
C 25.4457262 4.18734786 0.61387452 0.58700006 -1.19607248 -0.0
C 8.09985497 13.990549 0.61387452 -0.58700006 1.19607248 0.0
C 24.8726452 12.6954515 0.61387452 -0.58700006 -1.19607248 -0.0
C 8.6729356 5.48244638 0.61387452 0.58700006 1.19607248 -0.0
C 17.4673361 9.08894877 1.84162356 0.24405728 0.0 0.0
C 16.0782447 9.08894877 1.84162356 -0.24405728 0.0 -0.0
12
energy=-78.70238328 config_type=nep2xyz pbc="T T T" virial="-0.17849818 0.01461496 0.01921544 0.01461496 -0.17234675 -0.00681599 0.01921544 -0.00681599 145.99647924" Lattice="13.786962 -1.2e-07 -0.0 -1.2e-07 13.7869623 -0.0 -0.0 -0.0 2.35176078" Properties=species:S:1:pos:R:3:forces:R:3
C 3.73773123 8.74155517 1.77243953 0.09949521 0.10690363 0.05230483
C 3.71422253 8.71603303 0.59692319 -0.1017645 -0.11234107 -0.05133391
C 6.89316438 10.5302639 1.7679094 0.03764746 0.08894443 0.38687441
C 10.1022888 8.73325082 1.76837138 0.16762641 0.13934095 -0.25701686
C 6.88479722 10.5099095 0.59477222 -0.0324055 -0.08708578 -0.38643858
C 10.0621172 8.70085739 0.59062816 -0.17037784 -0.13430088 0.2572392
C 10.0670008 5.09124605 1.74930749 0.09502904 -0.04572671 0.74129343
C 6.90792022 3.22416959 1.78868455 0.1550741 -0.01479705 -0.14102553
C 10.0444095 5.10084191 0.57871334 -0.0995743 0.04031837 -0.74332337
C 6.87209246 3.22762874 0.61180894 -0.15377137 0.01607726 0.14218416
C 3.70434131 5.06741175 1.73504905 -0.12824147 0.01058514 -0.45187466
C 3.73428273 5.0652727 0.55595735 0.13126274 -0.0079183 0.4511169
16
energy=-113.84227518 config_type=nep2xyz pbc="T T T" virial="-12.01598516 2.50814069 0.68784582 2.50814069 -13.959681559999998 -3.4559956999999994 0.68784582 -3.4559956999999994 -16.15431515" Lattice="20.0 0.0 0.0 0.0 20.0 0.0 0.0 0.0 4.26" Properties=species:S:1:pos:R:3:forces:R:3
C 11.71 9.953 2.32799999 -1.24629056 1.55717516 1.96997534
C 11.19 11.161 1.66800002 -1.15719715 0.31074367 -1.42327904
C 11.162 11.181 0.218 -0.23877817 0.38434551 1.60672525
C 9.965 11.785 3.81899999 2.04835845 -0.31337334 -2.00346568
C 9.957 11.782 2.38499998 1.27062901 -0.98711643 1.11298141
C 8.738 11.319 1.68500002 1.3974597 -0.24660119 -1.37450563
C 8.835 11.353 0.28 -2.79451149 -2.72413619 0.58948835
C 8.254 10.012 3.73600002 1.79058233 0.77211102 2.24083837
C 8.319 10.086 2.38499998 -0.0383698 -2.24120681 -1.05858666
C 8.777 8.739 1.64999998 0.61856964 1.52666058 -1.9878471
C 8.795 8.766 0.21999999 0.70637371 0.95851057 0.49594878
C 10.04 8.208 3.722 -0.36342686 0.77210179 -0.62879362
C 9.969 8.082 2.282 1.56081333 2.90836254 2.84859428
C 11.269 8.769 1.62199998 -1.20954547 -1.28731449 -1.06410769
C 11.34 8.778 0.22499999 -2.11338864 -0.35505448 -0.18288581
C 11.678 10.024 3.77299999 -0.23127804 -1.03520792 -1.14108056
48
energy=-311.42492548 config_type=nep2xyz pbc="T T T" Lattice="9.1185 0.0 0.0 0.0 9.1185 0.0 0.0 0.0 9.1185" Properties=species:S:1:pos:R:3:forces:R:3
C 7.72491964 8.73679959 4.94095041 0.22072518 -0.32393427 0.0
C 3.16566964 5.70435123 0.38170041 0.22072518 0.32393427 0.0
C 6.71623117 4.17754959 0.38170041 -0.22072518 -0.32393427 0.0
C 0.38170041 3.16566964 4.17754959 -0.0 0.22072518 -0.32393427
C 4.17754959 0.38170041 3.16566964 -0.32393427 0.0 0.22072518
C 0.38170041 6.71623117 4.17754959 -0.0 -0.22072518 -0.32393427
C 5.70435123 0.38170041 6.71623117 0.32393427 -0.0 -0.22072518
C 0.38170041 6.71623117 5.70435123 0.0 -0.22072518 0.32393427
C 5.70435123 0.38170041 3.16566964 0.32393427 0.0 0.22072518
C 0.38170041 3.16566964 5.70435123 0.0 0.22072518 0.32393427
C 6.71623117 5.70435123 0.38170041 -0.22072518 0.32393427 0.0
C 4.17754959 0.38170041 6.71623117 -0.32393427 -0.0 -0.22072518
C 4.17754959 3.16566964 0.38170041 -0.32393427 0.22072518 0.0
C 4.17754959 6.71623117 0.38170041 -0.32393427 -0.22072518 0.0
C 5.70435123 3.16566964 0.38170041 0.32393427 0.22072518 0.0
C 6.71623117 0.38170041 5.70435123 -0.22072518 0.0 0.32393427
C 0.38170041 5.70435123 6.71623117 0.0 0.32393427 -0.22072518
C 3.16566964 0.38170041 5.70435123 0.22072518 0.0 0.32393427
C 0.38170041 4.17754959 3.16566964 -0.0 -0.32393427 0.22072518
C 3.16566964 0.38170041 4.17754959 0.22072518 -0.0 -0.32393427
C 0.38170041 4.17754959 6.71623117 -0.0 -0.32393427 -0.22072518
C 5.70435123 6.71623117 0.38170041 0.32393427 -0.22072518 0.0
C 3.16566964 4.17754959 0.38170041 0.22072518 -0.32393427 0.0
C 4.94095041 1.14510123 7.72491964 0.0 0.32393427 0.22072518
C 2.15698117 4.94095041 8.73679959 -0.22072518 -0.0 -0.32393427
C 2.15698117 1.14510123 4.94095041 -0.22072518 0.32393427 0.0
C 7.72491964 1.14510123 4.94095041 0.22072518 0.32393427 0.0
C 2.15698117 8.73679959 4.94095041 -0.22072518 -0.32393427 0.0
C 4.94095041 7.72491964 8.73679959 -0.0 0.22072518 -0.32393427
C 8.73679959 4.94095041 7.72491964 -0.32393427 0.0 0.22072518
C 4.94095041 2.15698117 8.73679959 -0.0 -0.22072518 -0.32393427
C 1.14510123 4.94095041 2.15698117 0.32393427 -0.0 -0.22072518
C 4.94095041 2.15698117 1.14510123 0.0 -0.22072518 0.32393427
C 1.14510123 4.94095041 7.72491964 0.32393427 0.0 0.22072518
C 4.94095041 7.72491964 1.14510123 0.0 0.22072518 0.32393427
C 8.73679959 4.94095041 2.15698117 -0.32393427 -0.0 -0.22072518
C 1.14510123 2.15698117 4.94095041 0.32393427 -0.22072518 0.0
C 8.73679959 7.72491964 4.94095041 -0.32393427 0.22072518 0.0
C 8.73679959 2.15698117 4.94095041 -0.32393427 -0.22072518 0.0
C 1.14510123 7.72491964 4.94095041 0.32393427 0.22072518 0.0
C 2.15698117 4.94095041 1.14510123 -0.22072518 0.0 0.32393427
C 4.94095041 1.14510123 2.15698117 0.0 0.32393427 -0.22072518
C 7.72491964 4.94095041 1.14510123 0.22072518 0.0 0.32393427
C 4.94095041 8.73679959 7.72491964 -0.0 -0.32393427 0.22072518
C 7.72491964 4.94095041 8.73679959 0.22072518 -0.0 -0.32393427
C 4.94095041 8.73679959 2.15698117 -0.0 -0.32393427 -0.22072518
C 6.71623117 0.38170041 4.17754959 -0.22072518 -0.0 -0.32393427
C 0.38170041 5.70435123 3.16566964 0.0 0.32393427 0.22072518
28
energy=-183.05535756 config_type=nep2xyz pbc="T T T" virial="17.18557324 -2.02091309 9.46907161 -2.02091309 -1.9437431300000003 -5.13213758 9.46907161 -5.13213758 -85.65364223" Lattice="12.071 0.0 0.0 0.0 12.071 0.0 0.0 0.0 11.271" Properties=species:S:1:pos:R:3:forces:R:3
C 11.244 1.60299995 7.26100001 0.11673066 0.56103822 3.65394154
C 10.7670001 11.045 8.44499997 -0.50667685 -0.97456027 1.08596673
C 1.33000004 11.1350001 8.56699998 0.73280156 2.4015574 -4.51952627
C 1.16600006 10.923 9.78099995 1.23804709 0.90581519 4.85563337
C 10.637 11.3359999 11.087 -0.40502239 0.34337553 2.24787743
C 1.21499999 11.096 11.157 0.44103769 -1.63844001 -4.46868668
C 1.04100002 10.8169999 1.09900004 -0.24098398 -3.42041513 3.89473457
C 10.828 11.869 2.44899996 -1.60276557 0.66824477 -1.86412942
C 0.76199998 10.236 2.30400001 -1.73265082 -0.14505787 2.0845928
C 0.16199994 9.93199997 3.539 2.11417169 1.36162486 -4.66207332
C 11.5089999 9.99300004 4.61499999 0.59796727 0.92419335 4.38258558
C 11.285 10.4240001 5.91199995 -0.41695429 -2.09715116 -1.3139947
C 10.929 10.783 7.16699999 0.05424506 -1.24056213 -0.32314597
C 11.504 2.03399995 8.603 -2.83616039 0.86323052 -5.31040756
C 0.46599999 3.01700003 10.316 3.09169494 -2.35021213 6.64411226
C 11.546 3.021 9.56699995 -3.42088148 -2.596597 -7.48214113
C 1.07 1.31100005 1.01499999 -0.85952375 2.58133387 0.81774451
C 0.50799995 2.03800004 11.254 4.36807189 -0.47684828 3.82971397
C 10.648 11.501 1.18699995 -0.23266087 0.75990909 -1.87515621
C 1.416 0.73800006 3.66300005 0.38183832 0.52438719 -2.83383088
C 1.45099999 0.89399999 2.24399997 -1.36701099 1.06059811 2.32101248
C 10.8389999 0.36899997 3.63499995 -0.81344693 -0.6292082 1.45932861
C 10.865 0.513 4.95000003 -0.54930423 1.00808692 -1.55410185
C 1.39199996 0.25599996 6.22500001 0.8501584 -0.38511781 -1.22959911
C 1.31700006 0.51500004 4.951 1.64497913 0.77474349 -3.10831637
C 11.0090001 0.78099998 6.24199995 -0.46619292 3.13381826 -0.15055088
C 10.7290001 11.164 9.79100003 -0.87069696 0.17160728 -1.03949123
C 1.35999998 11.719 7.31699998 0.68918872 -2.08939407 4.45790772
8
energy=-53.86549046 config_type=nep2xyz pbc="T T T" Lattice="4.1146 0.0 0.0 0.0 4.1146 0.0 0.0 0.0 4.1146" Properties=species:S:1:pos:R:3:forces:R:3
C 2.571625 1.542975 3.600275 -0.0 -0.0 0.0
C 1.542975 0.514325 3.600275 -0.0 -0.0 -0.0
C 2.571625 2.571625 2.571625 0.0 0.0 -0.0
C 3.600275 1.542975 0.514325 0.0 0.0 -0.0
C 3.600275 2.571625 1.542975 -0.0 0.0 -0.0
C 1.542975 3.600275 2.571625 0.0 0.0 -0.0
C 0.514325 3.600275 1.542975 -0.0 -0.0 0.0
C 0.514325 0.514325 0.514325 0.0 0.0 -0.0
54
energy=-385.64498984 config_type=nep2xyz pbc="T T T" Lattice="10.6036 0.0 0.0 -5.3018 9.18298697 0.0 0.0 0.0 6.095" Properties=species:S:1:pos:R:3:forces:R:3
C 6.63080221 6.12202192 2.53960365 -0.07618892 -0.00067465 -0.00099225
C 2.32054484 4.04317733 5.9159289 0.19494292 0.16788742 0.08634487
C -2.34122181 8.21274315 4.90009555 -0.04859013 -0.25295627 0.08583338
C 8.26237808 2.09075189 0.83676225 -0.04792178 -0.2527426 0.08642126
C -0.64003324 3.04905774 4.90009555 0.24336162 0.08439784 0.08583338
C 4.66176665 6.11005346 0.83676225 0.2428424 0.08486982 0.08642126
C 2.98125521 7.10417296 4.90009555 -0.19477149 0.16855842 0.08583338
C 2.9812551 0.98218171 0.83676225 -0.19492062 0.16787278 0.08642126
C 2.96057819 7.09223508 2.21073775 -0.04822817 0.25306142 -0.08661123
C 2.96057808 0.97024382 4.24240445 -0.0485847 0.25280465 -0.08594544