32
Lattice="6.24606 -0 -0 0.279471 11.4076 0 -0.37936 -0.305805 10.8917" energy=-113.461 virial="157.203 -16.5629 10.2118 -16.5629 102.666 38.1452 10.2118 38.1452 129.121" Properties=species:S:1:pos:R:3:forces:R:3
Pb 1.90662 1.3651 1.45038 0.686222 -0.902168 1.85303
Pb 0.66949 3.86912 0.63657 -0.646143 1.5326 0.084776
Pb 5.17083 0.81846 1.32898 0.609354 -0.044206 3.13264
Pb 2.43433 4.62885 8.57507 -4.42095 -5.02531 -1.86782
Pb 5.40563 -0.11748 6.59401 -0.234258 -0.055724 -1.0446
Pb 2.41945 10.0016 7.73775 -1.49313 2.36058 1.01502
Pb 3.28637 0.89144 9.96155 -1.49987 0.178224 -2.48233
Pb -0.03815 1.39121 9.04999 0.946234 0.555528 -0.026474
Pb 6.0016 9.66127 10.2153 0.222561 -0.638839 -0.122076
Pb 1.239 8.7371 2.39809 -8.16176 -1.39657 -0.735776
Pb 4.19429 6.21208 10.5433 -0.305486 3.0867 3.80555
Pb 1.78699 4.59523 3.95622 0.336686 -0.080998 -1.11718
Pb 4.28239 8.06515 7.40989 2.20092 -2.1154 -0.558918
Pb 1.52284 8.43066 5.29415 -0.481212 -0.559517 0.649555
Pb 4.95697 4.53531 8.69049 7.71229 0.140742 2.7216
Pb 1.42207 6.91082 9.00498 -2.37336 4.81401 0.596781
Pt 4.06879 4.18331 1.71204 0.403418 -3.24276 -1.2045
Pt 3.79844 2.23969 4.34011 8.33614 3.60939 -12.9594
Pt 5.34747 4.2723 4.60675 3.25379 -14.1433 -21.0592
Pt 2.69566 0.01226 4.572 -0.884684 -8.15044 -5.62127
Pt 0.153 1.79641 4.51719 -0.067121 -3.69265 -2.59889
Pt 0.67199 3.32022 6.28915 4.93628 -1.42721 5.11176
Pt 4.40746 3.34213 6.7568 -0.703362 -9.95894 2.37865
Pt 2.62334 1.71796 5.94185 -9.28055 1.23757 16.1007
Pt 3.47533 9.19957 2.38719 8.35962 1.53175 8.95988
Pt 5.14439 6.18147 2.94463 31.8519 -7.07405 2.78008
Pt 3.37147 6.42596 2.42847 -29.8499 5.29744 -9.51053
Pt 3.14696 9.32878 0.26465 -1.19508 0.894312 -10.1605
Pt 5.2398 10.0182 4.19437 0.685557 0.46742 -0.177686
Pt 3.78096 5.20367 5.67127 -17.3422 11.9838 2.50366
Pt 6.02172 5.56085 6.04686 10.3479 15.4122 12.9007
Pt 4.30621 7.58379 4.47095 -1.94977 5.40584 6.65281
32
Lattice="6.70348 0 0 -0.0590237 11.4869 0 0.223358 0.339181 11.0647" energy=-111.689 virial="71.5639 -27.5145 10.3716 -27.5145 97.2756 -16.1714 10.3716 -16.1714 72.3955" Properties=species:S:1:pos:R:3:forces:R:3
Pb 2.56843 0.57949 1.60051 0.288373 -1.63291 -0.111127
Pb 1.85278 3.29874 1.33833 -0.334114 1.9773 0.68341
Pb 5.86434 0.56894 1.47541 0.336723 1.15346 1.12917
Pb 2.90258 5.14976 4.24228 -0.655947 -1.68572 0.026335
Pb 3.85157 1.9017 4.51651 1.41263 1.03368 -2.20662
Pb 5.97851 10.5867 10.0813 0.344981 -0.932907 0.067316
Pb 4.54579 4.30519 7.54883 0.516922 -0.404057 -1.14714
Pb 2.36716 1.04329 6.66781 -0.975424 -0.046649 1.79753
Pb 6.03801 1.39719 7.04407 0.22503 0.67499 -0.863571
Pb 4.73335 2.00388 9.87529 -1.76423 0.12214 0.166728
Pb 0.99216 1.81079 9.74298 1.68311 0.323692 -0.149314
Pb 6.08824 10.4773 4.28915 0.68357 0.209148 0.556857
Pb 6.01725 4.95327 10.6901 -0.352076 -2.24281 -0.298465
Pb 1.5662 8.83516 1.58689 -0.768222 -0.08872 -0.222395
Pb 4.14134 7.74187 10.2612 1.68361 1.85657 0.635481
Pb 4.61515 9.12104 1.94442 0.37054 -0.718418 -0.376739
Pb 0.95083 7.15978 10.3327 -1.51145 3.3488 0.656197
Pb 4.44815 10.1854 7.43396 -0.605798 -0.534961 -0.190558
Pb 2.503 6.95586 7.51994 0.963717 -1.11339 -1.51184
Pb 1.10364 9.41439 7.63291 -0.035487 2.35455 0.485346
Pb 6.0177 7.16213 6.67261 -2.60695 -0.230688 2.74478
Pb 2.89721 10.176 4.38183 -0.476018 -0.107532 0.349066
Pb 1.17754 7.34945 4.70517 1.57192 1.77727 -2.32505
Pb 2.89712 5.32562 9.86957 0.232295 -4.39817 0.729679
Pt 5.38796 3.78182 2.45704 -3.78063 -5.50077 -5.35377
Pt 0.07151 3.34568 4.06443 8.14491 -6.83883 5.5158
Pt 0.80695 4.2313 6.60066 -0.079841 0.005401 0.194796
Pt 5.11482 6.83717 3.78478 -13.2182 24.0566 -8.98165
Pt 6.50234 5.9973 2.1348 7.47893 1.06831 -4.97873
Pt 4.13828 5.53376 1.63424 -6.40203 3.63561 -2.8801
Pt 2.93867 10.1372 9.9115 -0.449337 0.638599 0.038233
Pt 5.83092 5.32191 4.67059 8.07847 -17.7596 15.8203
108
Lattice="14.6895 0 0 0 14.6895 0 0 0 14.6895" energy=-423.059 virial="28.899 -7.05069 4.96904 -7.05069 42.4857 -6.24596 4.96904 -6.24596 28.4509" Properties=species:S:1:pos:R:3:forces:R:3
Pb 0.25516 2.93227 1.31332 0.617479 0.282795 -0.187935
Pb 1.89946 14.5847 1.9936 0.44535 0.366284 0.042325
Pb 1.77489 2.60835 4.39952 0.376452 -0.353913 -0.473145
Pb 13.6231 14.5871 0.40452 0.053436 -0.169165 0.192469
Pb 13.6811 0.30122 3.89218 0.378734 0.025976 -0.337978
Pb 1.76388 0.87856 13.2473 0.861174 0.516114 0.377218
Pb 9.55979 2.29678 5.30963 -0.364531 -0.478016 -0.140406
Pb 7.40498 14.489 5.39484 -0.465379 0.380883 -0.056481
Pb 11.7231 1.65439 13.3511 -0.388155 -0.16974 -0.222058
Pb 4.21156 14.0956 4.35031 0.455613 0.119565 -0.624162
Pb 4.16913 13.2689 14.6407 0.308156 0.508405 0.34401
Pb 11.6049 4.37928 0.11849 -0.513174 0.502996 0.085615
Pb 9.81718 14.2019 0.51563 -0.237388 0.638661 0.595354
Pb 10.3577 13.8013 4.20133 0.285303 0.494753 -1.09482
Pb 11.2047 2.28863 2.57935 -0.490892 0.111277 -0.324718
Pb 7.14295 13.1728 2.37753 -0.263429 0.556773 -0.137861
Pb 10.2916 5.26378 5.08836 -0.420848 0.628637 -0.676609
Pb 13.9186 14.0982 11.8077 -0.105268 0.058138 -0.038911
Pb 0.51751 0.88622 9.20076 -0.365485 0.472474 0.003939
Pb 1.19833 3.63717 7.47321 -0.095365 -0.115631 0.075525
Pb 1.53783 14.1641 6.31385 -0.538902 0.180769 -0.354105
Pb 13.3793 4.97814 9.51316 -0.189537 -0.108039 -0.345964
Pb 14.4447 3.28359 12.1256 0.13446 -0.18622 0.374385
Pb 4.01898 4.8038 5.85328 0.163867 0.137341 -0.696163
Pb 2.99507 13.6425 9.33351 0.324893 -0.067045 -0.02611
Pb 3.22998 2.85852 10.6373 0.437866 -0.615552 0.54018
Pb 4.16687 1.38763 6.87515 -0.079299 0.176682 0.139013
Pb 6.78023 2.61121 9.85347 -0.046729 0.111533 0.840332
Pb 5.42196 0.18679 11.8744 -0.140988 0.409249 0.338396
Pb 6.75563 3.2636 6.54295 0.316944 0.170667 -0.678896
Pb 6.12142 13.3145 8.33784 -0.243968 0.080281 -0.435229
Pb 4.88302 5.14345 9.09627 0.009793 0.341793 0.381764
Pb 8.96911 0.46355 8.48543 0.116743 0.264294 -0.24267
Pb 10.2611 4.22666 8.17608 -0.086023 -0.371 0.102128
Pb 9.68787 4.02517 11.9668 -0.331519 -0.081143 0.266158
Pb 8.87737 0.58518 11.8617 -0.262038 0.396662 0.449084
Pb 12.4571 0.29234 6.78674 -0.074215 0.180423 0.428309
Pb 11.8405 1.91789 9.83617 0.111934 -0.033019 0.210312
Pb 11.628 13.2918 9.50464 -0.193217 0.075574 7.6e-005
Pb 12.9509 3.40727 5.56702 0.349741 0.034754 0.043226
Pb 1.73887 8.67799 1.67174 0.301715 -0.797585 0.069488
Pb 0.78803 11.5187 0.37578 0.043118 0.104953 -0.255975
Pb 1.20061 11.6915 3.67532 0.157643 0.221932 -0.068657
Pb 1.21067 5.85755 4.24601 0.081381 0.028956 -0.622467
Pb 0.05404 5.89024 14.2923 0.906958 0.160611 0.550254
Pb 12.6692 8.79447 3.5136 0.056898 0.148787 0.106163
Pb 12.9626 9.23035 14.6185 0.668607 -0.386321 -0.055422
Pb 3.52733 8.10415 4.59303 0.095904 0.039614 -0.635607
Pb 4.32803 10.9769 2.73346 0.001266 -0.245365 -0.109383
Pb 7.06619 9.51366 1.33846 -0.27335 -0.722846 -0.117019
Pb 4.08586 9.90575 14.0467 0.294427 -0.65451 0.201826
Pb 6.86087 7.52783 4.50999 0.17373 -0.605189 -0.713014
Pb 7.36544 12.4483 13.7428 -0.178747 0.189222 -0.101847
Pb 9.56178 7.14844 13.6363 -0.583857 -0.163996 0.096537
Pb 12.9231 5.58129 2.78567 0.133352 -0.062414 0.147216
Pb 12.6273 11.9445 2.06582 -0.175625 -0.05985 -0.025491
Pb 9.54276 10.573 3.71294 0.051725 -0.103702 -0.337863
Pb 10.2104 10.4881 0.25079 -0.71315 0.000312 0.214248
Pb 9.87483 7.0584 2.11082 -0.528832 -0.226586 0.175262
Pb 2.07028 9.71785 9.1568 0.627665 0.525693 0.071525
Pb 14.0814 8.24339 9.71751 -0.199714 -0.466869 -0.170489
Pb 13.6906 10.9108 11.4942 -0.050951 0.007004 0.350939
Pb 0.61848 9.59229 5.97043 -0.248767 -0.38602 0.18365
Pb 14.6353 12.2577 8.56713 0.206728 -0.078082 -0.16128
Pb 13.3312 6.75918 6.49907 -0.257485 0.102242 -0.1034
Pb 2.05741 12.1865 12.1217 0.122568 0.008189 -0.096986
Pb 1.82694 6.77189 7.72197 0.123611 0.102017 -0.034749
Pb 1.73555 5.51067 11.0427 0.386806 0.719991 0.379134
Pb 9.72751 12.3521 6.75852 -0.22478 -0.485461 0.658129
Pb 3.38176 11.4348 6.565 0.194915 -0.122212 0.104047
Pb 5.03853 8.36289 7.41404 -0.015599 0.09699 0.303463
Pb 4.34095 7.9579 11.0017 0.306195 -0.496873 0.503209
Pb 5.16918 11.367 10.8018 -0.198253 -0.137593 0.088772
Pb 7.71073 6.29823 10.793 -0.614468 -0.179814 0.500195
Pb 7.27981 9.28159 12.2019 -0.144377 -0.377857 0.444614
Pb 7.83083 6.41452 7.54939 -0.153373 0.059312 -0.278942
Pb 12.456 6.66972 12.2473 -0.113679 0.032712 -0.286589
Pb 12.0129 10.2768 8.26236 -0.17793 -0.210756 -0.268282
Pb 10.6992 7.27224 9.17469 0.055199 -0.141241 -0.021957
Pb 8.37562 12.2621 10.3548 0.208316 0.291064 0.482146
Pb 10.6666 9.66786 11.3046 -0.233228 -0.154593 0.241432
Pb 7.8685 10.0163 8.35583 -0.06125 -0.768484 -0.003631
Pb 10.127 8.48108 6.07211 0.105119 -0.023148 -0.064748
Pb 12.974 11.9937 5.40497 0.000353 -0.243421 0.057176
Pb 1.3815 8.80403 12.432 0.081653 -0.394751 0.544261
Pb 6.60087 11.0191 5.57044 -0.26284 0.131831 -0.317969
Pb 10.8009 12.6495 12.5926 0.337795 0.032357 0.153353
Pt 2.46228 3.98802 13.8945 -2.61044 -2.18482 -0.907128
Pt 4.7068 4.80033 0.20268 2.42224 0.013835 0.749501
Pt 3.59847 3.03941 1.94762 -3.26705 -0.431422 0.293634
Pt 5.36172 2.55245 3.7955 -0.339447 -0.899071 2.80058
Pt 6.33961 3.15764 1.24142 -1.13345 2.34724 -0.82167
Pt 4.38703 2.198 14.2949 -0.832361 -1.81128 -1.6011
Pt 5.02477 0.89457 1.91271 -0.44167 -3.1601 -0.090177
Pt 6.82765 0.79738 14.6314 -0.105893 -3.17777 -0.172385
Pt 4.829 5.02878 2.97246 -0.061917 1.59866 1.84389
Pt 7.30855 4.16124 3.65968 0.623177 1.0904 2.10941
Pt 6.66501 2.77992 13.0551 0.796023 -1.15382 -2.70541
Pt 7.56161 4.9062 14.1201 1.90847 0.698746 -0.615662
Pt 7.82536 1.68718 2.3698 2.55901 -2.93784 2.74647
Pt 8.70525 2.59988 14.6827 2.55575 -1.00303 -1.50308
Pt 9.01854 4.26179 1.85238 2.02807 1.31171 0.032297
Pt 5.05238 4.55321 12.4284 -1.12151 0.998439 -2.77622
Pt 2.6831 5.5716 1.46322 -3.27584 0.337612 2.45346
Pt 3.13105 6.41504 13.7472 -0.787045 3.49811 -2.57081
Pt 4.56577 7.371 1.41703 -0.224703 1.87239 0.347139
Pt 5.96595 6.83697 13.743 -0.235138 2.28034 -0.798218
Pt 6.84463 6.08866 1.63927 1.37875 0.928162 0.67462
24
Lattice="7.77836 -0 -0 -0.0770092 7.62893 -0 0.227348 0.0165631 24.4983" energy=-92.5787 virial="-13.7545 5.44722 -0.65474 5.44722 -16.8545 2.1797 -0.65474 2.1797 -11.5725" Properties=species:S:1:pos:R:3:forces:R:3
Pb 5.205 1.35646 0.3111 0.369232 1.22266 0.320702
Pb 1.02545 0.88222 0.98976 -0.093731 -0.139534 -0.268824
Pb 1.15588 1.24267 4.44926 -0.341888 -0.935587 0.845179
Pb 3.05593 2.03186 10.208 -0.00828 -0.385937 -1.44747
Pb 4.84618 0.61148 4.9506 -0.028532 0.882558 0.661551
Pb 3.50765 6.88901 23.7132 0.109369 -1.15903 -0.106258
Pb 6.86255 2.71274 10.5474 -0.097516 -0.594807 -1.16639
Pb 2.74546 3.30816 6.72936 -0.568915 -0.866391 0.59799
Pb 7.22632 3.39277 2.78381 -0.726036 0.074886 -0.104281
Pb 0.88766 4.42088 0.26882 0.045095 0.199882 -0.168163
Pb 3.12759 2.71448 2.69923 0.753292 0.743171 -0.68681
Pb 6.80876 6.57265 2.97389 0.359889 -0.161912 -0.082257
Pb 3.43085 6.26355 2.38008 -0.239208 -0.233183 -0.297676
Pb 6.86367 6.96099 10.3947 -0.128983 0.994783 -0.281633
Pb 0.89438 4.97531 8.79489 0.499355 0.218666 -0.433191
Pb 6.80398 3.25585 6.67754 0.554768 -0.933388 0.098398
Pb 5.08895 5.26594 8.3681 -0.523844 0.649666 0.849029
Pb 4.58342 5.22548 5.3263 0.038733 0.047613 -0.791022
Pt 3.22074 7.48235 7.52402 -1.4647 -0.124676 -0.313927
Pt 5.48329 0.95736 8.00738 0.826446 0.438056 0.780961
Pt 0.35672 0.6989 8.21217 1.13593 0.202254 0.68656
Pt 5.06005 4.36378 0.14498 -0.261648 -0.084835 1.07557
Pt 6.92579 6.79802 6.40293 -1.10766 -0.039814 -0.015177
Pt 1.55137 6.40169 5.67782 0.898826 -0.0151 0.247126
108
Lattice="15.6241 0 0 0 15.6241 0 0 0 15.6241" energy=-352.239 virial="272.576 -16.9256 7.75818 -16.9256 270.829 13.0027 7.75818 13.0027 249.891" Properties=species:S:1:pos:R:3:forces:R:3
Pb 9.7393 0.76099 0.38043 -0.443222 -0.008961 -0.129362
Pb 15.5945 1.8245 3.56336 0.240451 -1.12014 -0.066135
Pb 13.9164 14.4353 4.84136 0.98184 0.075868 -1.33434
Pb 0.87764 13.1434 1.65556 -0.874463 0.367246 2.34812
Pb 0.00978 1.75577 13.9582 -0.198914 -0.100982 -0.367534
Pb 1.66474 0.43151 0.59033 -0.208138 -0.037848 0.281226
Pb 13.3502 14.1251 13.6557 -1.83498 3.48107 -2.43896
Pb 6.64879 1.60792 2.66349 -2.25211 -1.78785 -2.03625
Pb 3.92933 1.70744 14.7141 1.06939 -0.46935 -0.430906
Pb 4.13701 4.40088 2.52917 0.324634 -0.446156 0.132359
Pb 9.99248 4.21006 0.59851 0.93473 0.325042 -0.23844
Pb 7.16598 3.29078 0.22473 -0.524507 -1.49061 -1.24304
Pb 12.6817 13.0726 2.52109 1.04451 -1.30169 -0.808736
Pb 2.40081 14.5091 3.36484 1.69868 1.42165 1.89638
Pb 10.2399 14.4348 2.65138 -1.18834 -0.391885 -1.2897
Pb 12.1356 2.46747 3.52432 0.984403 -0.055592 0.012007
Pb 9.22003 2.88703 3.38374 2.15049 1.11258 -1.7829
Pb 12.2103 1.56234 14.5796 0.427954 -0.016185 -0.695476
Pb 6.47837 14.1404 4.38819 0.103004 0.292821 -0.001335
Pb 14.9818 4.56849 4.18345 1.76112 -1.52444 0.829589
Pb 7.32544 5.19986 4.8154 -0.397582 0.966488 -0.381282
Pb 0.55279 13.7278 7.87061 1.82534 -1.07062 0.310565
Pb 14.9778 4.95474 10.5344 0.042857 -1.68083 -0.296766
Pb 3.89332 0.41675 5.78783 0.127834 0.348578 0.36666
Pb 13.0254 3.67742 8.11666 0.294341 3.78746 -0.234522
Pb 11.8532 1.32259 7.61642 -1.97025 -1.58475 -0.845455
Pb 1.19858 2.66716 7.75329 -3.26944 -0.595869 -1.45474
Pb 14.596 1.83675 9.66654 1.15814 -0.396062 2.67513
Pb 3.02965 4.11951 5.83878 0.141989 0.625894 -1.29574
Pb 3.64714 3.08999 8.59123 1.9801 3.24981 0.135785
Pb 3.5148 14.5456 10.7731 -0.245599 -0.225179 0.296223
Pb 7.99077 3.69964 9.37472 -4.97472 1.30797 0.603571
Pb 7.3867 2.28845 5.24756 -2.47953 -1.28809 3.85119
Pb 7.64888 0.74739 12.9994 -0.153242 0.777903 0.12158
Pb 11.6445 14.1285 6.73532 -0.353194 -1.17636 -0.086827
Pb 5.04113 1.00285 9.20605 2.40834 -2.74728 0.519415
Pb 10.3052 3.21314 10.3979 2.0299 1.28887 1.57057
Pb 10.6111 13.1186 9.38663 -0.639856 -0.037061 0.153469
Pb 8.47687 14.5081 10.8075 -1.4069 1.09254 -0.593373
Pb 6.51334 4.04378 12.4071 0.178505 -0.035799 -0.034344
Pb 9.47714 3.05956 7.20771 0.971158 0.535757 -1.88033
Pb 14.4974 0.26601 7.2858 0.919686 0.437557 -1.04849
Pb 1.02075 14.4042 12.8086 0.271137 0.205698 0.105946
Pb 2.02037 3.01251 11.1226 -0.519533 -3.66269 0.731769
Pb 11.8338 1.01649 10.6374 0.700966 -2.4198 1.61699
Pb 9.62188 15.4542 5.1766 -1.31039 0.930362 0.774452
Pb 14.8252 12.841 15.3444 -1.20317 -1.66776 0.777392
Pb 14.8087 9.58151 4.90771 0.846277 -0.3124 -4.8666
Pb 7.54975 8.10203 2.21661 6.36867 -5.3825 0.748296
Pb 10.6775 7.44904 1.49629 0.522092 -1.40074 1.05088
Pb 2.92791 7.73743 4.86592 -1.9827 -0.167737 3.09581
Pb 0.18689 8.48195 0.91717 0.451112 0.754852 -0.030531
Pb 10.3273 10.6088 2.04004 0.42979 1.85859 1.9713
Pb 2.7694 10.3118 2.91887 -0.566222 -0.048066 0.836759
Pb 4.37258 7.52847 2.67868 1.43198 -0.631395 -2.08969
Pb 9.73303 9.41257 15.2569 -0.968832 -0.673875 -2.17539
Pb 11.497 9.66473 4.94673 -0.3096 0.393975 0.071627
Pb 3.27857 8.44516 15.5652 -0.196788 0.189474 -0.326601
Pb 13.261 6.49919 3.68072 -0.507232 2.08367 -3.11868
Pb 11.9577 9.35411 13.1814 -0.220988 -1.16773 0.742293
Pb 10.4761 5.66337 4.52779 -1.50004 -0.785072 -0.683324
Pb 7.40189 10.3562 3.84668 2.05334 1.2686 3.82261
Pb 6.58972 5.9976 0.80204 -0.99902 -0.645053 -0.900743
Pb 9.73266 6.38588 13.1734 0.252755 -2.08428 2.81325
Pb 0.47268 11.1595 13.4024 5.0558 0.149336 2.60461
Pb 1.41059 7.82329 9.58845 -0.041726 0.817895 -0.379189
Pb 13.9525 7.50588 10.7031 -0.886585 2.09677 -0.107111
Pb 14.6667 8.95399 7.44175 -0.22093 -1.85461 4.26868
Pb 1.89089 10.6495 6.72939 -0.150091 0.072379 -0.073428
Pb 2.15918 5.62028 11.3503 1.05996 2.90394 1.22521
Pb 14.018 11.7134 6.63625 -0.086349 0.375515 -2.43602
Pb 14.1671 10.6313 11.9425 -3.34194 -0.434458 -4.26595
Pb 3.6343 11.0796 11.2861 -0.171234 3.8428 -1.8875
Pb 4.06378 8.49998 7.86757 0.309143 0.064159 0.109889
Pb 7.11425 12.3882 8.74137 -0.31078 3.61794 -0.668929
Pb 15.6232 5.86904 7.17256 0.195701 -0.356717 0.025
Pb 5.00513 5.78019 9.94707 0.025394 0.048835 -0.289541
Pb 12.3215 6.9442 6.23248 0.354387 0.815939 3.36171
Pb 8.40889 11.4538 6.3944 1.06045 -0.005925 -0.467259
Pb 6.73764 10.1775 10.0369 -1.52159 -3.27262 1.17786
Pb 7.47587 7.07855 11.4581 -2.41703 -0.381685 -0.406435
Pb 10.4312 10.1419 8.95746 -0.106878 -0.07705 -0.636164
Pb 8.42415 10.1384 12.4671 -0.300418 0.926003 0.621742
Pb 4.64405 11.6451 5.52284 0.304161 0.230749 -0.048254
Pb 10.1202 8.03432 11.076 2.33667 0.778244 -2.74252
Pb 13.4322 12.7803 8.9809 0.602866 0.663475 3.41049
Pb 3.80667 8.78765 12.4692 0.400489 -3.39624 1.55486
Pt 7.71692 12.9559 13.2453 0.651125 -1.25911 -5.40301
Pt 10.2277 14.6357 13.2635 1.01299 4.40065 2.40292
Pt 4.68784 14.4286 1.07492 0.615931 14.7589 3.02797
Pt 3.05313 13.6393 14.7694 -2.91726 10.3177 -0.54934
Pt 8.27405 14.0831 15.1995 11.4161 0.917724 2.72184
Pt 6.1888 13.1437 15.6169 3.47492 3.47506 6.96204
Pt 5.31549 14.507 13.5754 -2.61365 8.78598 1.98049
Pt 6.69186 0.00922 15.4851 -3.87331 8.38484 2.14145
Pt 5.81867 13.3508 11.6825 0.145049 -2.85523 -8.33108
Pt 1.9554 11.1671 0.38912 -6.70111 -5.78276 2.80978
Pt 5.07376 11.0661 0.36717 -1.17917 -6.10844 -7.1972
Pt 5.3626 12.1712 13.8863 3.4813 -6.90574 -11.3592
Pt 5.99704 9.76097 1.87045 -1.32933 -5.87462 1.36368
Pt 7.93318 11.5346 15.322 -0.952114 -6.04054 2.91026
Pt 10.0501 12.1992 14.5098 -2.76747 0.665856 5.52221
Pt 5.39277 11.8954 2.63973 -6.53508 1.53956 9.48986
Pt 11.8612 12.0451 13.3168 9.92933 -2.20624 -3.13398
Pt 7.42096 12.591 2.21502 9.88115 3.44176 -0.810956
Pt 3.63993 12.5941 1.28336 -10.1626 -2.73703 5.80339
Pt 3.29313 11.5256 14.2074 -5.39842 -10.0898 -8.59599
Pt 9.97718 12.6332 12.016 -1.75595 -2.99483 -5.76352
108
Lattice="15.8738 0 0 0 15.8738 0 0 0 15.8738" energy=-402.767 virial="-95.9163 -5.01009 3.5482 -5.01009 -113.905 -1.85538 3.5482 -1.85538 -111.392" Properties=species:S:1:pos:R:3:forces:R:3
Pb 14.5459 4.55488 0.48539 -0.148586 0.3392 0.181734
Pb 0.40917 2.06885 1.01987 -0.213967 -0.221403 0.783093
Pb 2.90067 0.63903 15.2345 0.07896 -0.318926 -0.186748
Pb 12.6093 1.29423 0.80263 0.449414 0.474511 0.532704
Pb 2.35763 3.9669 14.841 0.127639 0.354764 0.4065
Pb 3.91402 2.01399 2.1808 -0.614499 0.358012 0.024809
Pb 4.03369 14.3497 2.83308 -0.393898 0.358329 -0.009853
Pb 6.46125 14.1046 0.57724 0.213005 -0.107746 -0.22499
Pb 6.75333 1.54508 15.7297 0.087974 0.189399 -0.023625
Pb 6.26403 1.52689 4.05743 0.28223 -0.388698 0.38109
Pb 5.72799 5.03777 0.01518 -0.002017 -0.083633 0.094325
Pb 9.48412 3.48462 1.5801 -0.311533 -0.143152 -0.166871
Pb 8.79618 0.0276 2.33036 -0.066387 0.188867 -0.117011
Pb 4.53541 4.07737 5.54555 -0.930098 -0.515919 0.296204
Pb 14.5836 15.7275 14.5452 0.091381 -0.190645 -0.058644
Pb 8.57972 3.30898 5.53583 0.218514 0.068688 0.097337
Pb 10.429 0.1824 14.8746 -0.52607 -0.457161 -0.209956
Pb 11.8486 0.1481 3.98581 0.69718 0.30451 0.692363
Pb 2.95706 5.40553 2.42246 0.038742 0.037499 0.085053
Pb 0.56676 14.6875 1.8041 0.397716 0.145435 0.577201
Pb 12.2014 4.4736 3.14822 0.635244 -0.178464 0.790785
Pb 9.16298 14.0011 5.43903 -0.082995 0.110295 0.030679
Pb 0.06053 2.24235 12.686 -0.37893 -0.30032 -0.757497
Pb 1.32078 14.4846 11.5738 -0.099276 0.209178 -0.448733
Pb 6.33438 4.26315 12.3953 -0.003437 -0.133524 0.148335
Pb 4.48714 0.62495 12.2422 -0.015314 0.037877 -0.381342
Pb 7.50745 0.79174 7.84367 -0.636742 -0.299938 -0.279081
Pb 2.75798 3.55924 11.624 0.102176 -0.077356 -0.718137
Pb 5.20304 2.56177 9.22913 -0.903118 -0.22751 0.017548
Pb 8.16607 0.37023 11.7786 -0.153537 -0.039199 0.071849
Pb 9.10816 4.30658 9.4635 0.137672 0.027811 -0.186679
Pb 12.8694 4.05945 13.0112 0.185653 0.113666 -0.028651
Pb 10.4887 1.11458 7.71917 1.47525 0.690087 -0.893901
Pb 11.2246 1.95084 10.7187 0.858246 -0.015291 -0.285036
Pb 13.2275 14.3842 11.4965 0.14831 0.68679 -0.30342
Pb 4.24074 13.8681 9.6619 -0.662158 0.417995 -0.518892
Pb 5.464 14.4099 5.90275 -0.152895 0.411983 0.337877
Pb 11.0801 14.0832 8.64569 0.57468 -0.388838 -0.133093
Pb 9.67773 3.08694 13.4414 -0.257473 0.271671 0.115966
Pb 14.1306 9.3135 15.4676 0.88447 -0.027896 0.217563
Pb 1.68629 11.2629 1.18209 0.030353 -0.131761 0.158523
Pb 0.07678 12.2813 14.1385 -0.871314 -0.089842 -0.081586
Pb 12.4293 13.011 14.6563 -0.039513 -0.095915 0.072586
Pb 15.2022 10.139 3.58285 0.091105 -0.047857 -0.350072
Pb 15.4738 6.78698 3.05029 0.464806 -0.790489 0.604092
Pb 1.45552 7.3288 15.7708 -0.075132 -0.031736 0.017014
Pb 2.99365 13.0385 14.5295 0.478573 0.254074 0.413467
Pb 9.9503 13.0563 1.21367 -0.017663 -0.021998 -0.239416
Pb 2.61912 12.5334 5.05401 -0.700595 0.442865 0.6156
Pb 7.4731 7.29943 13.8007 -0.071983 0.073214 -0.023611
Pb 6.83683 10.4473 15.3465 0.236011 0.04857 -0.117841
Pb 5.94551 11.5585 4.04717 -0.150895 -0.140631 0.033726
Pb 4.42718 8.55522 1.97281 0.099421 -0.013015 -0.053953
Pb 6.94748 5.84224 3.83082 0.047103 0.191608 -0.233502
Pb 8.72612 7.25995 1.2024 -0.168816 -0.034933 0.00529
Pb 8.62825 9.60208 3.64576 0.068816 -0.166159 -0.138971
Pb 11.1037 9.91287 0.01486 -0.55299 0.038455 -0.021353
Pb 12.6465 7.91621 2.37175 -0.53202 0.171512 -0.050178
Pb 11.4575 5.8183 15.5268 -0.057964 -0.004472 -0.015933
Pb 13.7936 13.2061 2.8794 0.084447 0.062298 0.691698
Pb 10.1267 6.39826 5.63808 0.084369 -0.059785 0.131899
Pb 3.97338 8.60797 5.21439 0.688784 0.095241 -0.38503
Pb 14.788 11.474 6.39957 0.378361 1.07879 0.625281
Pb 12.4289 8.99158 12.8289 -0.230137 0.021041 -0.468124
Pb 15.442 8.47618 9.84335 -0.085818 -0.308442 -0.458792
Pb 2.12681 10.8637 8.71965 -0.223607 0.540064 0.135391
Pb 14.494 11.7464 10.5729 0.417011 -0.034651 -0.582708
Pb 7.70266 9.66445 6.75295 0.282951 0.222552 -0.195639
Pb 1.22863 8.41518 6.56048 -0.740329 -0.768782 0.082916
Pb 2.29067 10.6374 12.2931 -0.094899 -0.141592 -0.386011
Pb 10.3646 6.33756 12.0991 -0.178374 -0.071675 0.338919
Pb 2.45617 5.99809 9.11186 -0.844676 -0.681336 -0.668395
Pb 5.74324 13.4559 12.8614 0.425584 -0.113795 -0.065515
Pb 5.63841 10.0511 11.6376 0.050859 0.236886 0.236035
Pb 5.04228 9.32612 8.35086 -0.434371 0.354671 0.031266
Pb 3.35734 6.78826 12.9285 -0.318326 -0.010706 0.344217
Pb 6.41916 6.54612 7.38355 -0.271104 -0.669991 -0.832
Pb 5.37625 6.89073 10.5366 0.183208 -0.279001 0.05887
Pb 15.2805 7.16084 12.7728 0.053213 -0.093155 0.339693
Pb 7.73705 12.2802 9.82711 -0.010587 -0.200989 0.207709
Pb 9.3516 13.3168 13.2659 -0.09389 0.027416 0.128481
Pb 8.27068 7.80271 9.44853 0.738083 0.355533 0.48459
Pb 8.92226 10.2009 12.3404 0.112838 -0.148457 0.008926
Pb 11.5798 6.78704 9.20586 0.584867 -0.629411 -0.575106
Pb 11.3024 10.4531 9.18503 -0.087766 0.122446 -0.022515
Pb 13.0929 8.00838 6.40773 0.380777 -0.663357 -0.11542
Pb 11.7575 12.0225 5.85875 -0.293063 0.286945 0.048174
Pt 14.9348 3.54142 3.79341 0.158771 0.105979 -0.693287
Pt 14.8397 0.95876 4.53517 0.201239 -0.026655 0.024544
Pt 1.35549 2.45237 5.00098 -0.497366 0.125484 -0.292024
Pt 1.80246 15.5042 4.86063 0.0167 -0.125295 -0.241405
Pt 13.8404 5.13834 5.64178 -0.971927 1.51444 -0.255701
Pt 0.07624 0.74605 7.20097 0.885641 -0.151246 0.16766
Pt 15.0155 3.08949 6.56562 1.19076 -0.231274 0.883756
Pt 15.5421 3.32028 9.34564 0.527842 -1.76727 0.916732
Pt 15.8468 0.46014 9.91005 1.7501 -0.506308 1.33747
Pt 15.0009 14.0817 8.38989 0.127179 0.084766 0.15301
Pt 1.79935 3.21976 7.7682 -0.024641 0.62364 -0.076552
Pt 15.3636 14.4512 5.70956 0.240042 -1.32609 -0.504093
Pt 15.0202 5.44651 8.25141 0.588948 2.10148 -0.998095
Pt 12.7933 4.17504 8.11211 -0.684231 -0.508308 -0.108303
Pt 1.85766 14.4314 7.61292 -0.0761 0.132376 -0.080935
Pt 2.48699 1.04143 9.06206 0.314471 -0.374718 0.244773
Pt 3.14737 1.29754 6.50605 0.777542 -0.34143 0.030931
Pt 0.87088 5.169 6.00291 -0.204945 0.023733 0.443001
Pt 13.7736 1.3162 8.95848 -2.45718 1.17892 -0.892929
Pt 13.3093 15.7572 6.66834 -0.769585 0.022756 0.390427
Pt 12.7104 2.43975 5.71135 -1.06049 -0.416175 -0.132529
108
Lattice="16.739 0 0 0 16.739 0 0 0 16.739" energy=-341.367 virial="184.436 -44.7559 8.55025 -44.7559 192.51 -2.79726 8.55025 -2.79726 205.662" Properties=species:S:1:pos:R:3:forces:R:3
Pb 2.61555 15.1496 2.61335 -0.296032 1.13561 -0.879789
Pb 2.68573 2.79632 2.57792 -0.581795 -1.39509 -1.59718
Pb 0.11854 14.2547 16.325 -3.43145 1.82611 0.970125
Pb 1.44582 3.67409 16.2349 -0.682898 1.0021 0.604656
Pb 14.1012 1.26266 2.03897 1.42579 -4.36954 0.239589
Pb 15.7825 1.34631 15.2167 0.644939 3.39353 0.70647
Pb 8.23136 15.3864 1.56794 -0.013054 -0.121957 -0.742699
Pb 2.11453 0.96641 15.3143 0.769466 -0.849792 -0.193478
Pb 16.1801 3.15164 2.54725 0.948222 -1.09131 -1.30707
Pb 7.00197 1.50444 1.73295 0.330018 0.898264 0.187991
Pb 7.91513 3.78839 4.57876 1.00725 -0.372965 0.214067
Pb 9.66473 13.8018 15.4388 0.771509 0.967163 0.197608
Pb 4.54671 0.08642 0.61184 -0.58793 -0.164134 -0.1916
Pb 6.53471 1.91224 14.3542 -1.98606 -2.7103 1.15543
Pb 9.70511 1.01602 4.73166 0.231879 0.267267 -1.14066
Pb 14.5481 15.854 14.5376 -1.42358 -2.62556 -0.814923
Pb 15.4862 15.4185 2.25335 0.206575 -0.709152 0.185246
Pb 11.7697 15.4269 1.9682 -0.230346 0.243302 -0.167396
Pb 9.55092 14.2679 4.04406 -0.48456 1.63416 2.64299
Pb 5.19733 4.01611 3.53481 1.20181 0.363812 -0.688547
Pb 4.89945 5.0008 0.42832 1.51501 -2.37339 -0.212265
Pb 2.74821 4.42735 4.99924 -0.613745 0.750841 1.50643
Pb 12.0396 16.2682 10.6083 -0.91489 0.167932 1.0789
Pb 13.3321 16.1313 8.05025 -3.40651 3.08626 2.06826
Pb 0.87802 0.98207 8.02113 -0.04669 -2.19515 0.822305
Pb 13.1206 14.3891 5.08717 -0.242871 0.619491 -2.01089
Pb 4.70183 2.78071 7.032 -1.40826 -0.614032 -1.11319
Pb 4.31061 3.71054 11.5742 -0.719995 -0.739498 -0.48538
Pb 6.69556 3.57781 8.73352 -0.064754 -0.589522 1.14999
Pb 9.54209 1.071 12.2569 1.28576 -0.225538 0.077145
Pb 15.4179 16.0018 6.6235 3.9037 -0.475986 -2.71789
Pb 7.18205 2.6604 11.7871 0.129103 1.16066 -1.98727
Pb 11.0033 4.44967 6.36005 -1.87575 -1.80165 -0.859582
Pb 9.51178 16.7339 7.51986 0.31633 -0.235397 0.728243
Pb 1.26303 3.49117 7.34804 -0.011279 1.62248 -0.332037
Pb 9.38297 4.18567 8.64889 1.19364 0.523383 1.27807
Pb 8.09203 15.4508 10.2364 -0.851312 0.278759 -1.66533
Pb 4.52914 14.1742 8.60461 -0.014565 -0.78119 0.114892
Pb 0.60419 16.4242 12.6777 -0.538678 5.35942 -1.40373
Pb 1.05707 15.0197 9.15204 0.198025 -0.376275 0.178042
Pb 0.79584 14.016 13.2548 0.658428 -5.31924 0.879986
Pb 9.42715 14.7428 12.5636 0.768796 -0.887751 1.11124
Pb 13.0055 13.4953 7.78275 -5.68132 0.048712 3.62945
Pb 13.6406 7.49902 14.0546 -0.085692 -0.010163 0.329541
Pb 16.1142 9.24345 4.04114 -0.520592 -0.208801 -0.59901
Pb 15.9235 8.39775 0.88175 -0.05065 -0.302743 0.049364
Pb 2.41347 6.33105 2.76861 -0.517741 0.461548 -0.369813
Pb 13.2848 10.8718 2.27221 -1.28344 -0.650241 1.86713
Pb 5.92405 12.3579 2.53725 0.909939 0.339176 1.37494
Pb 9.59851 10.66 4.64549 -1.43657 0.661352 -0.493211
Pb 4.86561 11.9418 16.7017 0.580721 -0.780515 -1.09437
Pb 4.01609 9.49226 14.7273 -2.02386 0.318792 1.99626
Pb 1.7401 10.2349 1.40333 0.21798 0.206599 0.097398
Pb 3.9632 7.53702 0.44449 -0.418477 2.55148 -0.224225
Pb 8.2509 11.5405 16.4909 -0.998457 -0.961048 0.575891
Pb 7.76364 8.74045 1.78394 0.103345 -0.302677 0.114133
Pb 3.10596 12.579 3.78637 1.30939 -1.47732 0.577436
Pb 14.8489 11.1247 0.0675 1.41933 0.772507 -1.81815
Pb 10.1561 12.3117 2.26236 1.09281 -1.27237 -2.27656
Pb 7.42017 7.56854 15.0693 -0.853276 0.249048 2.24958
Pb 16.2873 5.37979 4.10118 1.73962 1.22926 3.01314
Pb 9.35392 6.62823 4.65047 0.029049 0.255401 -0.638287
Pb 10.6495 9.22298 0.02406 0.645927 -0.015309 0.701953
Pb 2.32544 12.9795 15.9889 2.15729 -1.52261 -0.625422
Pb 0.28355 13.021 3.88365 -1.49996 0.26587 -0.452281
Pb 9.82072 9.98336 13.8619 1.15893 -1.05009 -0.131342
Pb 13.1074 8.19645 7.91244 1.01236 0.043304 1.20654
Pb 5.72767 9.26055 12.6933 0.827099 0.051967 -1.60688
Pb 10.4481 7.44992 9.97148 0.273643 -0.614907 -0.14631
Pb 0.74402 11.0548 6.11179 0.955161 -0.346732 0.585062
Pb 14.8935 12.2337 6.9367 5.07967 -3.32204 -2.13105
Pb 2.23595 7.36224 11.971 0.356069 0.069027 -0.227339
Pb 5.22664 12.6103 12.3156 -1.3473 0.585563 -0.723232
Pb 5.24325 6.36488 11.9577 0.425426 0.502381 -0.007717
Pb 3.97792 10.4716 10.1205 -0.048897 0.118403 0.951095
Pb 5.06902 6.02812 8.59647 -3.5304 -0.457047 0.626365
Pb 8.85275 6.85674 12.8139 1.31228 -1.40183 -1.38013
Pb 10.9052 8.94016 6.35675 1.8105 -2.69055 -3.20116
Pb 13.1939 5.8365 6.04172 2.63187 1.5359 -1.32817
Pb 7.70936 11.6921 13.3089 0.208109 1.20032 -0.145553
Pb 7.45211 12.2356 9.16738 -0.395088 0.044894 0.666212
Pb 7.80309 9.19069 10.5673 0.148328 0.191892 -0.338605
Pb 4.29457 10.6404 7.28834 0.389648 0.687784 -0.963291
Pb 7.43011 7.19126 8.10891 2.66593 0.924924 -0.704512
Pb 9.81245 10.1166 8.32441 -1.66749 2.35927 3.09885
Pb 1.65967 5.93389 8.85483 0.729278 0.860515 0.778236
Pb 7.20359 12.7743 6.21658 -0.192472 -0.096825 -0.680162
Pt 14.0585 3.76845 14.4631 5.4199 0.011899 -1.96993
Pt 9.64991 4.2392 1.1521 -1.80489 -7.50332 8.15555
Pt 9.57429 2.12215 16.4735 -3.744 -1.97741 -12.0465
Pt 11.9527 4.47353 16.4253 -7.3966 1.43049 -8.13178
Pt 9.81987 1.85745 1.7465 2.19746 -4.42127 15.648
Pt 7.74412 3.77075 15.3484 0.725833 1.96467 0.906777
Pt 14.0682 4.47929 16.6614 10.9735 -0.317188 1.78906
Pt 12.4467 2.23177 15.8292 2.31693 -6.56127 0.81249
Pt 12.7599 3.17367 1.72207 4.27206 -14.6484 1.38923
Pt 10.5769 3.47626 14.8886 -1.30291 -0.548885 2.0854
Pt 11.9047 4.99121 1.76346 -1.29381 11.8941 13.9749
Pt 9.67879 3.72976 12.9582 -4.2966 1.91131 -8.78052
Pt 12.3338 2.89468 13.2089 -2.04443 -4.42689 -4.77779
Pt 15.4782 5.66023 1.33484 9.06591 -2.79158 -6.62534
Pt 12.1255 5.29341 13.7788 -0.329847 2.70021 -1.94343
Pt 14.2711 6.44625 2.89152 2.2781 -0.307366 15.6012
Pt 11.6147 6.78483 15.7969 1.42721 4.92301 -1.00767
Pt 12.7669 7.22372 1.7328 -6.14499 10.0562 -7.53685
Pt 10.476 6.67323 1.4999 -7.58384 7.76458 1.9563
Pt 7.92364 5.96456 1.37196 -4.33318 2.03092 1.8188