-5.713385782022239318e-02 3.760790018767790954e+00 7.306799022275563438e+00 1.798220335723014873e+00 3.736596610106157179e+00 5.443489301783864143e+00 1.802414471530799478e+00 5.608192580502043612e+00 7.254728829213272334e+00 3.583778558333362785e+00 1.858392683465622808e+00 5.492590173676849652e+00 5.596890126459479475e+00 1.101447153670831285e-02 1.806359030386031073e+00 3.632533242276284380e+00 3.750835754224483676e+00 7.328495581515280577e+00 3.739456561435507531e+00 1.841907111007314413e+00 1.769721735798490903e+00 5.480682247302035570e+00 5.646306411193331876e+00 7.322619775833332234e+00 -1.196522604252578566e-02 2.707212230469478384e-02 3.754729247224048549e+00 1.769288200975083880e+00 1.918409228100190766e+00 7.328675366232999089e+00 3.645858765678895441e+00 5.612464553998176342e+00 5.506635529925365979e+00 1.383602294089614389e-02 1.856799073309320702e+00 1.867771939806042614e+00 5.589101639080818806e+00 1.818531757609912036e+00 3.758170873215895824e+00 3.640788645575325333e+00 7.473037725520184082e+00 3.691586098644037417e+00 5.568433046075651482e+00 1.829780070548646664e+00 7.240468387044836085e+00 5.586414871008353877e+00 3.727816552727254873e+00 1.868718345494955635e+00 -8.872005984803724155e-02 7.460462156697993841e+00 7.205230347161544202e+00 5.580470157695188504e+00 5.651877960314925176e+00 3.691574354266733859e+00 5.594371444312036701e+00 3.765902407306058741e+00 5.469416237754491483e+00 1.888049843947597894e+00 3.780980421388847823e+00 1.946284861356031071e+00 -1.106963523027287670e-02 5.623101887349332806e+00 1.882509987347805724e+00 1.867595808290112069e+00 7.473756620584125265e+00 1.811735785988717984e+00 -1.747217733347024293e-02 5.596095625049409605e+00 5.452623580939920167e+00 2.042272674041881869e-02 3.679199211036169981e+00 3.707388679332571435e+00 5.502041076099482453e+00 7.426407418472363631e+00 5.511913389801467389e+00 1.831095153451103741e+00 1.852595602274758058e+00 3.683381526035567344e+00 3.738948883526384659e+00 5.649165532013276092e+00 1.751804276650210213e+00 1.837260194359774612e+00 -2.469178662156500462e-03 5.515344436603919931e+00 6.106030427465872212e-02 1.882081694561173579e+00 5.444891642515911734e+00 3.661636048416982980e+00 3.711625226831728241e+00 3.703823382044503898e+00 3.645479780712032269e+00 7.482958028163839259e+00 7.279248616042599096e+00 1.790871414695894170e+00 5.639201996582393406e+00 3.774966301129888180e+00
-5.714385767408855510e-02 3.760790009855315308e+00 7.306798968953680529e+00 1.798210495798862274e+00 3.736596641423559184e+00 5.443459248915250903e+00 1.802404347089433534e+00 5.608212544743723882e+00 7.254748802313711664e+00 3.583798620334845531e+00 1.858382714713495920e+00 5.492580267109453906e+00 5.596890135443325143e+00 1.100447154967128249e-02 1.806359017023780211e+00 3.632543188820246183e+00 3.750835749727000401e+00 7.328505634686074188e+00 3.739446508271736747e+00 1.841907088684879845e+00 1.769731682325518696e+00 5.480692247155901420e+00 5.646306420105807966e+00 7.322619829155215143e+00 -1.195527051471876115e-02 2.706211782017413706e-02 3.754739287032590855e+00 1.769288218942774549e+00 1.918389228126116786e+00 7.328675339508496478e+00 3.645868863168725493e+00 5.612474589717607820e+00 5.506615596911678345e+00 1.383601395705083385e-02 1.856809073296357804e+00 1.867771953168293475e+00 5.589101567803224313e+00 1.818551744174027096e+00 3.758180899789307805e+00 3.640778654705304707e+00 7.473027716620671335e+00 3.691586031959904091e+00 5.568433152695459576e+00 1.829780097368565173e+00 7.240448387347015569e+00 5.586414755404700117e+00 3.727826525894373244e+00 1.868738358555027013e+00 -8.872006883188254811e-02 7.460472156685031386e+00 7.205230360523795063e+00 5.580470219988938219e+00 5.651867973737846995e+00 3.691564341055573184e+00 5.594371559915690462e+00 3.765892434138939926e+00 5.469396224694420994e+00 1.888049728343943690e+00 3.780990394555966638e+00 1.946304874416102670e+00 -1.105974199621560967e-02 5.623101869441890166e+00 1.882530040367508706e+00 1.867595763964053024e+00 7.473746607187129243e+00 1.811745772475377381e+00 -1.749212373129812453e-02 5.596095620634417678e+00 5.452613474447245423e+00 2.040270906499588172e-02 3.679219193185292891e+00 3.707388599413307784e+00 5.502051057985658744e+00 7.426427427358913036e+00 5.511913469847851132e+00 1.831095153451103741e+00 1.852595602274758058e+00 3.683381526035567344e+00 3.738928617269129617e+00 5.649165447138528862e+00 1.751854169250996129e+00 1.837260194359774612e+00 -2.469178662156500462e-03 5.515344436603919931e+00 6.104031355077169096e-02 1.882071676749185407e+00 5.444891522509895943e+00 3.661656199070583817e+00 3.711635284873593843e+00 3.703793502503789803e+00 3.645479771728187046e+00 7.482968028150876805e+00 7.279248629404849957e+00 1.790871565641762420e+00 5.639212036799308159e+00 3.774936314945408267e+00
-5.717391054559149005e-02 3.760789969707929892e+00 7.306808808836943392e+00 1.798190709330747650e+00 3.736596677238444464e+00 5.443419142875844940e+00 1.802384160500452026e+00 5.608242486650007130e+00 7.254778735303429649e+00 3.583828753467788619e+00 1.858352768309729841e+00 5.492560387290528645e+00 5.596890082133421096e+00 1.100445813971212550e-02 1.806369016872690247e+00 3.632573135071939685e+00 3.750835763054467531e+00 7.328515794500631841e+00 3.739446295032118783e+00 1.841907035045043051e+00 1.769771681721159284e+00 5.480722246717500745e+00 5.646306446843234461e+00 7.322619989120862982e+00 -1.194535931297087406e-02 2.704209993865731160e-02 3.754759313327791670e+00 1.769278255024290036e+00 1.918349219265493177e+00 7.328675232737611012e+00 3.645879058294518860e+00 5.612494652243993798e+00 5.506575677562421944e+00 1.382595180943491445e-02 1.856819050960959894e+00 1.867781913057571685e+00 5.589111443069588958e+00 1.818571726240658215e+00 3.758200979533512509e+00 3.640768717145188571e+00 7.473017721131117952e+00 3.691575965426860062e+00 5.568453268006845924e+00 1.829770142026397650e+00 7.240428480930709121e+00 5.586414586491141421e+00 3.727836485651533138e+00 1.868768371464008426e+00 -8.871996221207364974e-02 7.460472183504950117e+00 7.205210360825974547e+00 5.580470246940473444e+00 5.651837973776736135e+00 3.691564300968820600e+00 5.594391728536982633e+00 3.765882492206731769e+00 5.469366318429203844e+00 1.888049541462694325e+00 3.781020354287199403e+00 1.946334914049585807e+00 -1.104983977831303261e-02 5.623091851547410869e+00 1.882550080024961048e+00 1.867605728475705273e+00 7.473726602715571765e+00 1.811755798921668381e+00 -1.754191874485645786e-02 5.596105629698913120e+00 5.452573221804441594e+00 2.036268269799529351e-02 3.679249157496502054e+00 3.707388426212530064e+00 5.502071075067913597e+00 7.426467458541972100e+00 5.511903630091709694e+00 1.831095215744853455e+00 1.852585615697680321e+00 3.683371512824406224e+00 3.738898137918391207e+00 5.649165299711469856e+00 1.751944007925539948e+00 1.837250247815813031e+00 -2.469174164672885332e-03 5.515334383433128096e+00 6.098038570516976786e-02 1.882051636710217135e+00 5.444881176005187839e+00 3.661686429246322483e+00 3.711675378608964238e+00 3.703743716673890241e+00 3.645469771874320752e+00 7.482968019238400714e+00 7.279248576082967936e+00 1.790891885208921064e+00 5.639212135084013866e+00 3.774876422495712092e+00
-5.721391894490145125e-02 3.760799934045064852e+00 7.306808608911663505e+00 1.798151083084614354e+00 3.736596735458256546e+00 5.443348930645942829e+00 1.802363902633875137e+00 5.608292415120404328e+00 7.254818694866559170e+00 3.583878992928273721e+00 1.858322866550832897e+00 5.492520614417548686e+00 5.596880046937341646e+00 1.098443584320336897e-02 1.806378936675216318e+00 3.632612974557690944e+00 3.750835758474492465e+00 7.328546007334892920e+00 3.739445975172692282e+00 1.841906954585288192e+00 1.769831680814620833e+00 5.480752299589003229e+00 5.646306486990620321e+00 7.322610149237600119e+00 -1.193550142112743441e-02 2.702206864718131873e-02 3.754789339471903631e+00 1.769268309073495526e+00 1.918289210430795366e+00 7.328675099242222934e+00 3.645899350910141834e+00 5.612524750489810366e+00 5.506515825199478797e+00 1.381588067797368501e-02 1.856839028612599307e+00 1.867791886309101201e+00 5.589111247204495037e+00 1.818611685958928748e+00 3.758231032529246729e+00 3.640748842024955412e+00 7.472997730152010298e+00 3.691555832360772449e+00 5.568473489938041254e+00 1.829760213504148192e+00 7.240388574816583045e+00 5.586414301973928964e+00 3.727856418575811404e+00 1.868818397433061218e+00 -8.872981112007177762e-02 7.460482214809388779e+00 7.205180321319612169e+00 5.580470327201914493e+00 5.651807987225583751e+00 3.691554261033157758e+00 5.594412012761926789e+00 3.765862577107404352e+00 5.469316399103916204e+00 1.888059238831657272e+00 3.781060296098027518e+00 1.946385020065022786e+00 -1.103998188646959297e-02 5.623071820255933773e+00 1.882580106169072565e+00 1.867615657645143479e+00 7.473686584859980719e+00 1.811775798492367917e+00 -1.760171361228095310e-02 5.596115629850935136e+00 5.452532915839755745e+00 2.030270094932152061e-02 3.679289117379755947e+00 3.707378159881327129e+00 5.502101127346249676e+00 7.426527512021539046e+00 5.511883870533042185e+00 1.831105286876314908e+00 1.852565638046040686e+00 3.683361539572877152e+00 3.738837294820568147e+00 5.649155031690233919e+00 1.752103672214556651e+00 1.837230345744044202e+00 -2.459165182668624720e-03 5.515314290453792623e+00 6.089041397191025107e-02 1.882021556536826346e+00 5.444880656021491738e+00 3.661736810075662873e+00 3.711725530386200234e+00 3.703664051303275695e+00 3.645459709726704745e+00 7.482977996903002804e+00 7.279258535972245703e+00 1.790902409177986376e+00 5.639222278083118489e+00 3.774776490690743724e+00
-5.727398036184818547e-02 3.760809867147289154e+00 7.306818302191528502e+00 1.798111563458289597e+00 3.736596820497986915e+00 5.443258718718220202e+00 1.802333520325933192e+00 5.608362307832481797e+00 7.254878627530128021e+00 3.583949250064180969e+00 1.858272982642813043e+00 5.492480921463831045e+00 5.596879958285223111e+00 1.096440904921099427e-02 1.806398909648535112e+00 3.632662822881154163e+00 3.750825762819955944e+00 7.328576260128786046e+00 3.739445593019516068e+00 1.841916860702611070e+00 1.769901693119243058e+00 5.480802298858333366e+00 5.646306531552998109e+00 7.322610415847012888e+00 -1.191573232753610767e-02 2.698201947418849347e-02 3.754839391911216406e+00 1.769248390220370837e+00 1.918199192722511048e+00 7.328674872338200252e+00 3.645929741015594416e+00 5.612564884455058412e+00 5.506436039822848905e+00 1.379574739889653096e-02 1.856868983928841033e+00 1.867811819449908928e+00 5.589120979915670695e+00 1.818671641153789986e+00 3.758271165420274951e+00 3.640728975888567920e+00 7.472967739185866876e+00 3.691535685932433974e+00 5.568493765179140631e+00 1.829750298391857877e+00 7.240338668853547155e+00 5.586423901706928596e+00 3.727886333579683686e+00 1.868888489784067852e+00 -8.872966017420373663e-02 7.460492255026302644e+00 7.205150335135131812e+00 5.580460425577179251e+00 5.651757991787882851e+00 3.691544141051110284e+00 5.594432403606680815e+00 3.765842688827995666e+00 5.469246480080808048e+00 1.888058811759254274e+00 3.781120202150535903e+00 1.946455099180899539e+00 -1.101023090670272264e-02 5.623051779969491015e+00 1.882630238654769750e+00 1.867625595798427574e+00 7.473636567017353016e+00 1.811795784700816592e+00 -1.769135709543590701e-02 5.596135643482442745e+00 5.452462463724941699e+00 2.021269268751333878e-02 3.679359050486694205e+00 3.707367773671229383e+00 5.502141161510761158e+00 7.426607574387656285e+00 5.511864191020759307e+00 1.831115402333835407e+00 1.852555673791397739e+00 3.683341579834688240e+00 3.738766238629261274e+00 5.649144701116684431e+00 1.752303282577331478e+00 1.837210505966025087e+00 -2.459142777742238332e-03 5.515284184263297362e+00 6.077054929686111912e-02 1.881991476445927347e+00 5.444859976374327282e+00 3.661817341412469062e+00 3.711785749117777478e+00 3.703554559713829519e+00 3.645449691905148004e+00 7.482997987964601805e+00 7.279258509374864516e+00 1.790933083800652081e+00 5.639242479124088270e+00 3.774646679345060818e+00
-5.734404163266108856e-02 3.760819791337038698e+00 7.306827942149511479e+00 1.798052257363850215e+00 3.736596941352602563e+00 5.443128400751091611e+00 1.802293066886529349e+00 5.608452178196199789e+00 7.254948533445227277e+00 3.584039622511475010e+00 1.858213143392625888e+00 5.492421322093808733e+00 5.596869869779238726e+00 1.094437334274308074e-02 1.806418829299970996e+00 3.632732608618599368e+00 3.750825771567448452e+00 7.328616632777604778e+00 3.739435060066605310e+00 1.841916717690543770e+00 1.770001638286462509e+00 5.480862342307589508e+00 5.646316598424847122e+00 7.322600749291650502e+00 -1.188596338007861727e-02 2.694197921367121745e-02 3.754889497672411647e+00 1.769218480497225299e+00 1.918099166114713983e+00 7.328674578750042912e+00 3.645970335230686032e+00 5.612615080959656666e+00 5.506316321734710861e+00 1.377560513597407207e-02 1.856908939232119637e+00 1.867831765952967515e+00 5.589130703643002462e+00 1.818741596335688104e+00 3.758311311673554922e+00 3.640699172192063848e+00 7.472927752730169182e+00 3.691505472971052360e+00 5.568524155877761395e+00 1.829730419024924837e+00 7.240268803152321020e+00 5.586433394820118359e+00 3.727916221763638571e+00 1.868978581832895225e+00 -8.873941144623828658e-02 7.460512313137696694e+00 7.205100309293200667e+00 5.580460541774001193e+00 5.651688005288582950e+00 3.691534047666443996e+00 5.594472963072725236e+00 3.765812858616378378e+00 5.469146654792484519e+00 1.888068322246967634e+00 3.781190103692597670e+00 1.946535244829820099e+00 -1.099058640061091087e-02 5.623031703950653437e+00 1.882700317516404764e+00 1.867645436169613982e+00 7.473576531280245128e+00 1.811835810566717608e+00 -1.780095596026404561e-02 5.596165652685995973e+00 5.452381918479704659e+00 2.010267573412752654e-02 3.679438965755719160e+00 3.707357294179617124e+00 5.502201230725217052e+00 7.426707667962756609e+00 5.511834645027833268e+00 1.831125535759046130e+00 1.852525709562680145e+00 3.683321593371998048e+00 3.738664809707024972e+00 5.649134249935994667e+00 1.752572731916829829e+00 1.837180657350294677e+00 -2.449129298254362590e-03 5.515254038113169166e+00 6.061065884797881692e-02 1.881931347334055538e+00 5.444849043201788419e+00 3.661908058891223394e+00 3.711876030362778245e+00 3.703405162137378248e+00 3.645429629903665703e+00 7.483007956716728692e+00 7.279268415942261150e+00 1.790963971662935750e+00 5.639262733804894623e+00 3.774476868603736435e+00
-5.743410261120630161e-02 3.760829697701836505e+00 7.306837475463728637e+00 1.797973049197642226e+00 3.736607071189222751e+00 5.442977989804628436e+00 1.802242489005760451e+00 5.608562012801596275e+00 7.255038412460765862e+00 3.584150065944096131e+00 1.858133335403274522e+00 5.492351802794139815e+00 5.596859736947194186e+00 1.091432423927897986e-02 1.806448735438066278e+00 3.632822349737717893e+00 3.750815784742894898e+00 7.328667098556850057e+00 3.739424420493885570e+00 1.841916547858558406e+00 1.770121583151502476e+00 5.480932341284652232e+00 5.646316660812176202e+00 7.322601122544828200e+00 -1.184628323087324325e-02 2.688192107163710903e-02 3.754959629728808590e+00 1.769188606709461320e+00 1.917959139558769177e+00 7.328674231712883014e+00 3.646020964641857542e+00 5.612685299760761914e+00 5.506186683844047636e+00 1.375540956314716921e-02 1.856948881125439099e+00 1.867861712304936361e+00 5.589140258456774646e+00 1.818821511274745673e+00 3.758381470835816085e+00 3.640659421951598418e+00 7.472887770771956539e+00 3.691465206838877133e+00 5.568574608577864460e+00 1.829700570905864465e+00 7.240189030883700028e+00 5.586432763491942843e+00 3.727966074189272838e+00 1.869088646982161706e+00 -8.874910940836838735e-02 7.460532384659050997e+00 7.205040283602358819e+00 5.580460666954667914e+00 5.651608018802245503e+00 3.691523940919526847e+00 5.594513584832521147e+00 3.765773041827683354e+00 5.469036816292998537e+00 1.888067645999565558e+00 3.781289956053417001e+00 1.946645376790341109e+00 -1.095097752900060263e-02 5.622991632372735360e+00 1.882780476146213688e+00 1.867665294508491058e+00 7.473496495569063924e+00 1.811875809708116902e+00 -1.794044776688178203e-02 5.596195661972041435e+00 5.452281213570998375e+00 1.996264125145259111e-02 3.679538854261390934e+00 3.707346681446858305e+00 5.502271335135755059e+00 7.426827783834365704e+00 5.511795179232381159e+00 1.831135722494161788e+00 1.852495758743922138e+00 3.683291607060397599e+00 3.738533061363764176e+00 5.649123691558123994e+00 1.752902020384141890e+00 1.837140853206757241e+00 -2.429111334245841799e-03 5.515213852154499996e+00 6.041082229353630928e-02 1.881871195982240730e+00 5.444827896892810770e+00 3.662028908909753522e+00 3.711996378536193575e+00 3.703225965066596181e+00 3.645409549934493842e+00 7.483037925442929783e+00 7.279278349234158618e+00 1.791005072618703231e+00 5.639283051038012751e+00 3.774267111788654372e+00
-5.754421660738830158e-02 3.760839572831723654e+00 7.306856901983090680e+00 1.797884063401031352e+00 3.736607245766166763e+00 5.442787512778390457e+00 1.802181733373720673e+00 5.608691798238714554e+00 7.255158264425653591e+00 3.584280686981853759e+00 1.858033585494677897e+00 5.492252363867003773e+00 5.596849559789093043e+00 1.087426173881869164e-02 1.806488628062821178e+00 3.712493171967471195e+00 3.770980083789972515e+00 3.813509245703810570e-05 3.739413620991453246e+00 1.841916337796695391e+00 1.770271527563272995e+00 5.481032384149373549e+00 5.646326763333927801e+00 7.322591669276994786e+00 -1.180670071763145236e-02 2.681183612264765453e-02 3.755049748120775188e+00 1.769148760019366717e+00 1.917789104129237421e+00 7.328673791267087623e+00 3.646081851472572133e+00 5.612765594511175848e+00 5.506007113392966446e+00 1.372514285885902997e-02 1.857008800670398418e+00 1.867901631908434501e+00 5.589149786319012492e+00 1.818931426174914545e+00 3.758451670084829832e+00 3.640609689824957140e+00 7.472827779927192715e+00 3.691424860660318163e+00 5.568625221207680553e+00 1.829670763016681967e+00 7.240079259068348705e+00 5.586441972087919261e+00 3.728015895297505100e+00 1.869228765000041648e+00 -8.875875406059403894e-02 7.460552469590362890e+00 7.204970258062606270e+00 5.580450863559063279e+00 5.651508036839317128e+00 3.691503754277314808e+00 5.594564366375895048e+00 3.765733274181340740e+00 5.468897031568666023e+00 1.888076800692470858e+00 3.781399777083871427e+00 1.946785574981726219e+00 -1.091142196729474184e-02 5.622951547384856141e+00 1.882870634624932649e+00 1.867695117359020163e+00 7.473396455386323467e+00 1.811925835295806975e+00 -1.810978818922996322e-02 5.596235684737574267e+00 5.452150362512163007e+00 1.979263356554769940e-02 3.679668729400706439e+00 3.707325948986294861e+00 5.502361403318642985e+00 7.426987917479075385e+00 5.511755873529698313e+00 1.831155971376892788e+00 1.852455830260561820e+00 3.683251660859518051e+00 3.738380842507475155e+00 5.649102994678632861e+00 1.753321187485629373e+00 1.837101111356969518e+00 -2.419079947315193498e-03 5.515163652984668374e+00 6.017100429131977402e-02 1.881791009006450022e+00 5.444806510571799762e+00 3.662179962745654827e+00 3.712126807073909518e+00 3.703006941928073115e+00 3.645379479095299580e+00 7.483057885269617238e+00 7.279288215841922316e+00 1.791046431140147499e+00 5.639313435307964362e+00 3.774007369091272324e+00
-5.768433914901409387e-02 3.760859421211222298e+00 7.306876181899056633e+00 1.797765282298594558e+00 3.736617447232557954e+00 5.442556889753114469e+00 1.802100844462604545e+00 5.608851538992074559e+00 7.255298049531349491e+00 3.584451378712671499e+00 1.857913884671868354e+00 5.492143111653985166e+00 5.596839391614834902e+00 1.082419925132137306e-02 1.806528507325324995e+00 3.712612752718474241e+00 3.770970083472968692e+00 1.187603840795751863e-04 3.739402599265557292e+00 1.841926074082033127e+00 1.770461484732935187e+00 5.481142435851805494e+00 5.646326874781117944e+00 7.322582255968794307e+00 -1.175721598648708441e-02 2.673173327917839626e-02 3.755159906170193462e+00 1.769098940426942379e+00 1.917589059826118936e+00 7.328673257412656739e+00 3.646152835793116775e+00 5.612855924981021261e+00 5.505807609928198509e+00 1.368487630070473055e-02 1.857068711302881647e+00 1.867941498190050176e+00 5.589169189447615871e+00 1.819061323141714537e+00 3.758541949078047839e+00 3.640560019992066021e+00 7.472757802505351599e+00 3.691374501270598074e+00 5.568685887001265655e+00 1.829640977449934036e+00 7.239959540725968701e+00 5.586461002640359830e+00 3.728085685062410004e+00 1.869398962611036774e+00 -8.876831006070140528e-02 7.460592581315668603e+00 7.204880259549534927e+00 5.580441078131149979e+00 5.651388054902316327e+00 3.691483540910601491e+00 5.594625378980444985e+00 3.765673569113236141e+00 5.468717274046072774e+00 1.888085821814031728e+00 3.781539571255518872e+00 1.946945812957684652e+00 -1.086201749759075144e-02 5.622901431092539148e+00 1.882990832610013987e+00 1.867724904867335667e+00 7.473276401819550330e+00 1.811985834007905805e+00 -1.831897708117476847e-02 5.596285712070119267e+00 5.451989311981318309e+00 1.958259951264221949e-02 3.679828568851230663e+00 3.707305043324952365e+00 5.502461497713765581e+00 7.427178073407329606e+00 5.511706661386740258e+00 1.831176229243469677e+00 1.852405901790164400e+00 3.683211701296388529e+00 3.738198197610352214e+00 5.649082163782040311e+00 1.753820193412750861e+00 1.837041360815604207e+00 -2.399066398298599443e-03 5.515113360533323572e+00 5.987125844350132953e-02 1.881690781991690820e+00 5.444774777746080652e+00 3.662361300067200620e+00 3.712297342756955221e+00 3.702728133110739339e+00 3.645339346108490641e+00 7.483087822760908558e+00 7.279308042338964668e+00 1.791108046935000919e+00 5.639353904439699861e+00 3.773697747155355220e+00
-5.784446139837221695e-02 3.760879251765769204e+00 7.306895355171256767e+00 1.797626723711888364e+00 3.736617684526797767e+00 5.442286147326181656e+00 1.802009759832526870e+00 5.609051230551229672e+00 7.255467834310896258e+00 3.584652194592586660e+00 1.857774237432329834e+00 5.492013992984293047e+00 5.596819170276806865e+00 1.077411444138935866e-02 1.806578333114856383e+00 3.712772279575038414e+00 3.770960105395907647e+00 2.095988121428888501e-04 3.739391426593793089e+00 1.841925770150456110e+00 1.770681428087077292e+00 5.481282478131991986e+00 5.646337012952771239e+00 7.322573015988491640e+00 -1.169782005359483110e-02 2.663161255419231252e-02 3.755290090514813439e+00 1.769039165899878308e+00 1.917339006675340185e+00 7.328672603425089527e+00 3.646244059419379013e+00 5.612976340286724763e+00 5.505558253949397240e+00 1.363447631733944593e-02 1.857158586164082026e+00 1.868001350934355820e+00 5.589188467988718934e+00 1.819211193262670445e+00 3.758652254493588973e+00 3.640490466055096075e+00 7.472677834091441262e+00 3.691304022177040789e+00 5.568756730546121858e+00 1.829591241051464756e+00 7.239809849434239553e+00 5.586469864425374965e+00 3.728165425671998268e+00 1.869599119809130627e+00 -8.878780362092518474e-02 7.460622697551420046e+00 7.204780194503419999e+00 5.580431363980832060e+00 5.651248086401199799e+00 3.691453300970476192e+00 5.594706497912533827e+00 3.765613908690002010e+00 5.468517623469423938e+00 1.888104602598304593e+00 3.781709320660916251e+00 1.947146143737918944e+00 -1.080271080998418225e-02 5.622841296905741970e+00 1.883131070252547667e+00 1.867764612561244597e+00 7.473126330384224580e+00 1.812065845652955032e+00 -1.857805862264149538e-02 5.596335721660205209e+00 5.451807995143241214e+00 1.933254807658147181e-02 3.680008372625927393e+00 3.707283951100581731e+00 5.502591662354914703e+00 7.427408282841078346e+00 5.511637662960612971e+00 1.831196540419950614e+00 1.852355986729725901e+00 3.683161741884347862e+00 3.737975020198720522e+00 5.649061163135954189e+00 1.754418984541443738e+00 1.836981770203952147e+00 -2.379012619404535702e-03 5.515033068535247551e+00 5.951157576623567619e-02 1.881580514925000447e+00 5.444732711777906076e+00 3.662572823238425368e+00 3.712497958778375295e+00 3.702409524950164954e+00 3.645299204137835147e+00 7.483127760239235648e+00 7.279327882198257882e+00 1.791180035753052069e+00 5.639394476353625230e+00 3.773318179598948774e+00
-2.235300000000000065e-01 3.549799999999999844e+00 7.436989999999999768e+00 1.657070000000000043e+00 3.556449999999999889e+00 5.545300000000000118e+00 1.591080000000000050e+00 5.353679999999999772e+00 7.382399999999999629e+00 3.510969999999999924e+00 1.719840000000000035e+00 5.588980000000000281e+00 5.623199999999999754e+00 -2.207999999999999893e-02 1.835220000000000073e+00 3.489549999999999930e+00 3.537469999999999892e+00 7.457069999999999865e+00 3.700429999999999886e+00 1.770440000000000014e+00 1.799099999999999921e+00 5.301999999999999602e+00 5.386630000000000251e+00 7.450630000000000308e+00 -4.318999999999999923e-02 -3.824000000000000316e-02 3.821889999999999787e+00 1.805649999999999977e+00 1.893909999999999982e+00 3.360000000000000139e-03 3.463779999999999859e+00 5.391119999999999912e+00 5.604709999999999859e+00 -5.668000000000000121e-02 1.783400000000000096e+00 1.901559999999999917e+00 5.545169999999999710e+00 1.711060000000000025e+00 3.822700000000000209e+00 3.421139999999999848e+00 7.235350000000000392e+00 3.757600000000000051e+00 5.494040000000000035e+00 1.668579999999999952e+00 7.365059999999999718e+00 5.500569999999999737e+00 3.612089999999999801e+00 1.899359999999999937e+00 -3.633899999999999908e-01 7.163879999999999804e+00 7.325639999999999930e+00 5.424999999999999822e+00 5.462170000000000414e+00 3.757750000000000146e+00 5.479619999999999713e+00 3.585539999999999949e+00 5.566749999999999865e+00 1.767800000000000038e+00 3.663679999999999826e+00 1.986229999999999940e+00 -1.923700000000000132e-01 5.462880000000000180e+00 1.914099999999999913e+00 1.652039999999999953e+00 7.269529999999999603e+00 1.841599999999999904e+00 -2.294100000000000028e-01 5.372489999999999988e+00 5.547080000000000233e+00 -1.248999999999999971e-01 3.533510000000000151e+00 3.777299999999999880e+00 5.280459999999999710e+00 7.161970000000000169e+00 5.604040000000000354e+00 1.761929999999999996e+00 1.751179999999999959e+00 3.747970000000000024e+00 3.594129999999999825e+00 5.498260000000000147e+00 1.780520000000000103e+00 1.799989999999999979e+00 -1.040299999999999975e-01 5.611290000000000333e+00 -3.805999999999999661e-02 1.744129999999999958e+00 5.540029999999999788e+00 3.543649999999999967e+00 3.561139999999999972e+00 3.773870000000000058e+00 3.627159999999999940e+00 -1.457499999999999907e-01 7.406740000000000101e+00 1.609680000000000000e+00 5.444810000000000372e+00 3.839459999999999873e+00
-2.238499999999999934e-01 3.549830000000000041e+00 7.436230000000000118e+00 1.657180000000000097e+00 3.555769999999999875e+00 5.546660000000000146e+00 1.592370000000000063e+00 5.354659999999999975e+00 7.383519999999999861e+00 3.511330000000000062e+00 1.717980000000000063e+00 5.589489999999999625e+00 5.623120000000000118e+00 -2.111999999999999988e-02 1.836799999999999988e+00 3.490240000000000009e+00 3.536540000000000017e+00 7.456260000000000332e+00 3.701070000000000082e+00 1.768769999999999953e+00 1.797700000000000076e+00 5.300790000000000113e+00 5.387929999999999886e+00 7.449259999999999771e+00 -4.343999999999999945e-02 -3.966999999999999693e-02 3.823109999999999786e+00 1.805930000000000035e+00 1.892679999999999918e+00 3.340000000000000087e-03 3.464409999999999989e+00 5.393150000000000333e+00 5.604049999999999976e+00 -5.786000000000000171e-02 1.785449999999999982e+00 1.902060000000000084e+00 5.546059999999999768e+00 1.715740000000000043e+00 3.820479999999999876e+00 3.420980000000000132e+00 7.235470000000000290e+00 3.755609999999999893e+00 5.493439999999999657e+00 1.669159999999999977e+00 7.367180000000000284e+00 5.501890000000000391e+00 3.612289999999999779e+00 1.900689999999999991e+00 -3.619899999999999785e-01 7.163640000000000008e+00 7.323039999999999772e+00 5.422640000000000349e+00 5.464439999999999742e+00 3.758879999999999999e+00 5.478580000000000005e+00 3.586040000000000116e+00 5.565760000000000041e+00 1.769060000000000077e+00 3.663650000000000073e+00 1.986499999999999932e+00 -1.930199999999999971e-01 5.462229999999999919e+00 1.912150000000000016e+00 1.651750000000000052e+00 7.268299999999999983e+00 1.842570000000000041e+00 -2.341499999999999970e-01 5.371389999999999887e+00 5.546630000000000393e+00 -1.239800000000000069e-01 3.530689999999999884e+00 3.780479999999999841e+00 5.278870000000000395e+00 7.163090000000000401e+00 5.605610000000000426e+00 1.764790000000000081e+00 1.753220000000000001e+00 3.749800000000000022e+00 3.594110000000000138e+00 5.499369999999999870e+00 1.778610000000000024e+00 1.801930000000000032e+00 -1.069699999999999956e-01 5.610540000000000305e+00 -3.760000000000000148e-02 1.743030000000000079e+00 5.539990000000000414e+00 3.544029999999999792e+00 3.556039999999999868e+00 3.775300000000000100e+00 3.627540000000000209e+00 -1.461399999999999921e-01 7.406349999999999767e+00 1.606400000000000050e+00 5.444160000000000110e+00 3.837909999999999933e+00