-2.079800461400000131e+02
-2.079802621400000078e+02
-2.079806006500000137e+02
-2.079810716199999945e+02
-2.079816178700000080e+02
-2.079824525900000083e+02
-2.079834411699999919e+02
-2.079846051499999930e+02
-2.079860039399999891e+02
-2.079876619100000141e+02
-2.076535829400000068e+02
-2.076562946100000033e+02
-2.076567086899999879e+02
-2.076548982099999989e+02
-2.076508669399999860e+02
-2.076446394900000030e+02
-2.076362804400000073e+02
-2.076258333000000107e+02
-2.076133619199999885e+02
-2.075989341099999876e+02
-2.068712540900000079e+02
-2.068717557699999929e+02
-2.068693329500000004e+02
-2.068640329099999917e+02
-2.068558867099999929e+02
-2.068449704399999973e+02
-2.068313844200000062e+02
-2.068152415000000133e+02
-2.067966379000000074e+02
-2.067756992500000024e+02
-2.075495534300000031e+02
-2.075457771799999875e+02
-2.075388094699999897e+02
-2.075287793200000124e+02
-2.075157094299999869e+02
-2.074996634800000095e+02
-2.074807875099999990e+02
-2.074592100300000084e+02
-2.074350166000000115e+02
-2.074083441299999890e+02
-2.091284689100000094e+02
-2.091250020500000062e+02
-2.091194282499999986e+02
-2.091118295999999930e+02
-2.091022217299999966e+02
-2.090906275499999936e+02
-2.090770790999999917e+02
-2.090616232200000013e+02
-2.090443190899999877e+02
-2.090251995600000043e+02
-2.076253545200000019e+02
-2.076248668899999927e+02
-2.076218025000000011e+02
-2.076161848399999883e+02
-2.076080480200000125e+02
-2.075974331699999880e+02
-2.075844106099999919e+02
-2.075690527200000020e+02
-2.075514167700000030e+02
-2.075315901799999949e+02
-2.090248844500000018e+02
-2.090247049300000128e+02
-2.090221713800000032e+02
-2.090173868500000083e+02
-2.090103930100000014e+02
-2.090012378899999987e+02
-2.089899601099999984e+02
-2.089766222000000084e+02
-2.089612830899999949e+02
-2.089440177300000130e+02
-2.065674891699999876e+02
-2.065686501300000089e+02
-2.065675086399999998e+02
-2.065641758600000060e+02
-2.065586691400000063e+02
-2.065510700799999881e+02
-2.065414066699999864e+02
-2.065296787400000085e+02
-2.065159557599999971e+02
-2.065002946600000087e+02
-2.070979064699999981e+02
-2.070945660099999941e+02
-2.070884268099999872e+02
-2.070795620099999894e+02
-2.070680168099999889e+02
-2.070538795699999923e+02
-2.070372260299999994e+02
-2.070181587799999932e+02
-2.069967766499999868e+02
-2.069731953700000133e+02
-2.077668515299999967e+02
-2.077680326100000059e+02
-2.077664474899999902e+02
-2.077621797500000014e+02
-2.077552362000000130e+02
-2.077456659100000138e+02
-2.077335257400000046e+02
-2.077188732500000015e+02
-2.077017767099999901e+02
-2.076823449299999993e+02
-2.092790033400000027e+02
-2.092790116099999977e+02
-2.092790117300000077e+02
-2.092790120100000024e+02
-2.092790123000000051e+02
-2.092790126499999985e+02
-2.092790130500000032e+02
-2.092790135699999894e+02
-2.092790141799999901e+02
-2.092790149100000008e+02
-2.087723071800000127e+02
-2.087700597200000061e+02
-2.087654421800000080e+02
-2.087584923800000070e+02
-2.087492144199999871e+02
-2.087376426499999980e+02
-2.087238060500000074e+02
-2.087077748199999974e+02
-2.086895976000000132e+02
-2.086693329800000072e+02
-2.088529331899999875e+02
-2.088540587999999900e+02
-2.088529267199999992e+02
-2.088495948999999996e+02
-2.088440663499999914e+02
-2.088363790200000096e+02
-2.088265821399999993e+02
-2.088147167699999898e+02
-2.088008518499999866e+02
-2.087850377800000103e+02
-2.087399600999999905e+02
-2.087398948800000085e+02
-2.087369371499999886e+02
-2.087311421900000141e+02
-2.087225541500000077e+02
-2.087112226399999884e+02
-2.086972327400000040e+02
-2.086806711099999916e+02
-2.086616254099999992e+02
-2.086401945499999897e+02
-2.089726707899999951e+02
-2.089739202899999952e+02
-2.089733141099999898e+02
-2.089708829600000115e+02
-2.089666324899999950e+02
-2.089605926600000032e+02
-2.089527999100000102e+02
-2.089433049200000028e+02
-2.089321262100000069e+02
-2.089193207900000004e+02
-2.087508562700000141e+02
-2.087514215900000067e+02
-2.087503380800000059e+02
-2.087476228200000037e+02
-2.087432971599999973e+02
-2.087373725500000035e+02
-2.087298530299999868e+02
-2.087207422200000053e+02
-2.087100895700000081e+02
-2.086979136799999992e+02
-2.088345083300000056e+02
-2.088302096399999925e+02
-2.088238688600000046e+02
-2.088155622499999993e+02
-2.088053096799999935e+02
-2.087931687599999862e+02
-2.087791800200000125e+02
-2.087634075900000141e+02
-2.087459171000000140e+02
-2.087267375700000116e+02
-2.089423654699999986e+02
-2.089418767900000091e+02
-2.089395641300000079e+02
-2.089354626500000052e+02
-2.089295751100000018e+02
-2.089219062999999892e+02
-2.089125001499999996e+02
-2.089013817700000004e+02
-2.088885677099999896e+02
-2.088741103499999952e+02
-2.084539912399999935e+02
-2.084521010400000023e+02
-2.084484724499999970e+02
-2.084431531099999972e+02
-2.084361519800000053e+02
-2.084275055100000031e+02
-2.084172444099999950e+02
-2.084053993900000137e+02
-2.083920058600000118e+02
-2.083770998100000043e+02
-2.090483657199999925e+02
-2.090466153200000008e+02
-2.090424930000000074e+02
-2.090360610600000086e+02
-2.090273407699999950e+02
-2.090163785599999926e+02
-2.090032261199999937e+02
-2.089879425700000013e+02
-2.089705983100000140e+02
-2.089512555199999895e+02
-2.082531084899999883e+02
-2.082532173699999873e+02
-2.082533954200000039e+02
-2.082536550400000124e+02
-2.082540023299999916e+02
-2.082544903900000008e+02
-2.082551008499999909e+02
-2.082557817800000066e+02
-2.082565821500000141e+02
-2.082576978399999916e+02
-2.086503520999999921e+02
-2.086512581000000068e+02
-2.086503759100000082e+02
-2.086477479399999879e+02
-2.086433824300000026e+02
-2.086373071399999901e+02
-2.086295625099999995e+02
-2.086201644299999884e+02
-2.086091600500000141e+02
-2.085965801300000066e+02
-2.059424683299999970e+02
-2.059421648800000071e+02
-2.059410461399999974e+02
-2.059391151300000047e+02
-2.059363704200000029e+02
-2.059328129200000035e+02
-2.059284366800000043e+02
-2.059232552999999939e+02
-2.059172670400000129e+02
-2.059104665899999986e+02
-2.072712621700000000e+02
-2.072702056100000050e+02
-2.072678749000000096e+02
-2.072643113500000140e+02
-2.072594907300000102e+02
-2.072534373500000129e+02
-2.072461719300000027e+02
-2.072377107799999862e+02
-2.072280748100000096e+02
-2.072172853700000132e+02
-2.068827543399999911e+02
-2.068789189500000134e+02
-2.068742191899999909e+02
-2.068687351000000092e+02
-2.068624911899999859e+02
-2.068554872299999943e+02
-2.068477452299999868e+02
-2.068392810100000077e+02
-2.068301086300000122e+02
-2.068202386700000091e+02
-2.074962725899999896e+02
-2.074958901599999876e+02
-2.074942649500000016e+02
-2.074914396400000101e+02
-2.074873997500000087e+02
-2.074821572799999956e+02
-2.074757136199999934e+02
-2.074680805700000121e+02
-2.074592750699999897e+02
-2.074492985299999930e+02
-2.077627426399999990e+02
-2.077637179200000048e+02
-2.077634298399999864e+02
-2.077619094000000075e+02
-2.077591324199999860e+02
-2.077551147199999946e+02
-2.077498669199999881e+02
-2.077434019300000045e+02
-2.077357221199999913e+02
-2.077268331900000078e+02
-2.079100128999999981e+02
-2.079120108799999969e+02
-2.079122047500000008e+02
-2.079106598200000064e+02
-2.079073846800000069e+02
-2.079023934399999973e+02
-2.078957159500000103e+02
-2.078873679200000026e+02
-2.078773932100000081e+02
-2.078658217999999920e+02
-2.084965500099999929e+02
-2.084974699299999941e+02
-2.084966360500000064e+02
-2.084940848999999901e+02
-2.084898170499999992e+02
-2.084838624699999912e+02
-2.084762428600000135e+02
-2.084669900499999926e+02
-2.084561207700000125e+02
-2.084436710999999889e+02
-2.087890344799999980e+02
-2.087893110200000137e+02
-2.087879041900000061e+02
-2.087848871600000109e+02
-2.087802625100000000e+02
-2.087740450299999964e+02
-2.087662750599999981e+02
-2.087569789800000137e+02
-2.087461834899999928e+02
-2.087339199500000007e+02
