-2.634717886878109594e-01 3.582573676465114487e-02 3.413399230848072896e-02 -2.157973517420640197e-01 9.634394418588316036e-03 -4.417301680282873511e-01 -1.485953369468279994e-01 3.157648625282444277e-01 2.724473954714515811e-01 3.206998180424504019e-01 -2.272356038896229946e-01 -2.129722921449116180e-01 -2.537750807431922440e-02 -8.817835484923837452e-02 8.190370341455667502e-02 2.486271049946715828e-01 -2.008824117715688265e-02 1.478627245264232948e-01 -2.038980024579496036e-02 7.803680425913856605e-03 3.539911153175271386e-01 2.217065814226911180e-01 1.239359392929180285e-02 -1.676371785671246922e-02 9.824358380112824252e-02 -1.611287138274010711e-01 2.048797581832773052e-01 -9.387553846627669230e-02 -3.919554675205604855e-01 -2.820645413208914881e-04 1.432303735409329870e-01 1.884347502323484302e-01 -4.010028087597358182e-01 -7.330610915101319625e-02 1.295619019845734576e-01 8.412421884498849645e-02 1.595578273620695819e-02 1.395864449313340971e-01 9.734171571174710103e-02 -6.182803431664583849e-02 -7.312678595250386715e-02 -5.676752508077437948e-02 6.760798940275671021e-02 -3.799409784920732697e-02 -1.348675700957854273e-01 1.270763037545489388e-02 7.130243360315016710e-02 1.804150864160455059e-01 -1.329487739020398900e-02 3.274377235572760447e-02 -9.405138661973957981e-02 -7.610091961761922090e-03 -1.307325530269016212e-01 -2.428724810269550574e-02 6.853856708351330207e-02 -5.884388548927103890e-02 -1.845623195120399129e-01 1.131272014866815771e-02 1.495637576249983225e-01 1.770655476707105325e-01 5.426393928297707642e-02 -5.429603060001993164e-02 1.255103661199945264e-01 3.636374397619153431e-02 -1.290964236691421185e-01 6.729775379514053857e-02 -1.239225974671324393e-01 2.845389533646059538e-02 -9.293987785219436082e-02 -1.234325030325851419e-01 9.259297361898440049e-02 -1.178202870922170735e-02 6.269320368221968642e-02 1.116422638371963039e-01 -3.127954391236497517e-02 1.236285382420406614e-02 -2.577466995254709681e-02 -2.563704482109099847e-02 -1.104574126032649567e-01 -1.220860681492476514e-02 2.951282399832836356e-01 -3.290690560415945876e-02 1.056731043441334547e-02 -3.506878553274518640e-02 -1.749302696648028788e-01 -5.681400786304157541e-02 -1.812601281411918910e-02 1.052998704075288894e-01 9.933795463469421994e-02 -1.603218579051311210e-01 -2.111249468589295256e-02 1.929803256771499970e-02 8.999464048128257010e-03 3.457673912045860359e-02 2.055707560963529468e-02 -1.878319427285345677e-01
-2.625031740411364334e-01 3.571198009169919418e-02 3.460301052305922442e-02 -2.164215475172328873e-01 1.009063877056295792e-02 -4.415838815779490889e-01 -1.477429776094935643e-01 3.149682880478288927e-01 2.719528637159399076e-01 3.206578962759550899e-01 -2.268230303047072405e-01 -2.126809579681940565e-01 -2.526694840005388673e-02 -8.797757176510409560e-02 8.214056563516576592e-02 2.472652661264694851e-01 -1.985811697505109399e-02 1.476027692443858952e-01 -2.080257172992006423e-02 7.690846604277676822e-03 3.528407461460921213e-01 2.209553196138593634e-01 1.271117808813263667e-02 -1.695729987200354436e-02 9.787334435642422448e-02 -1.603916865474581399e-01 2.038627574250646002e-01 -9.362118862717380696e-02 -3.910151940373472468e-01 4.335631105445215440e-04 1.425519539712360173e-01 1.883172575270850024e-01 -3.995935616729330286e-01 -7.255709220446722452e-02 1.293475282368219681e-01 8.415892489722635872e-02 1.653447980250009539e-02 1.384993919997302148e-01 9.776934946784587854e-02 -6.209733898256585005e-02 -7.296981978074205955e-02 -5.617474129402228594e-02 6.740213350025978101e-02 -3.820704554730960240e-02 -1.342969444520573097e-01 1.275300570390133781e-02 7.106476546367082592e-02 1.801970063045158221e-01 -1.295080458775399457e-02 3.296014705567777009e-02 -9.410026295180001776e-02 -7.176728277190467034e-03 -1.294282823502355406e-01 -2.419718746265937456e-02 6.850757454437897409e-02 -5.870563208019043827e-02 -1.840242912066547554e-01 1.102263594264548535e-02 1.486840335298235116e-01 1.759148041416020714e-01 5.462280996697380792e-02 -5.387864815589579748e-02 1.254658382915646575e-01 3.653472725466232196e-02 -1.286416715296581914e-01 6.685026836507809711e-02 -1.234417436225530851e-01 2.827999928132985188e-02 -9.269454391209798472e-02 -1.227768582504127348e-01 9.156249033182282948e-02 -1.172891454453121353e-02 6.218133740970992196e-02 1.116765964869710637e-01 -3.112422427990857443e-02 1.181604467476542360e-02 -2.678908865096993677e-02 -2.569232102194002679e-02 -1.104150976765385372e-01 -1.193792565374047696e-02 2.938988099706533741e-01 -3.269331720384913154e-02 1.058615202807386066e-02 -3.480661766743518154e-02 -1.746095707269305075e-01 -5.698558431828187193e-02 -1.822753478836479021e-02 1.050458405105191839e-01 9.891537433218269837e-02 -1.600587748396280208e-01 -2.132744359265694237e-02 1.912531544480518264e-02 8.643081160022330831e-03 3.445024372704295901e-02 2.141402840906586960e-02 -1.871324573355543086e-01
-2.614478186311087193e-01 3.590280567717118315e-02 3.469489389726057582e-02 -2.172749718995798385e-01 1.028256136142952776e-02 -4.413511702917363166e-01 -1.469144926719255784e-01 3.140126927270809887e-01 2.699609688163059351e-01 3.194842421552727130e-01 -2.259362981045253405e-01 -2.117720118695909093e-01 -2.485203164616372334e-02 -8.794196279571818431e-02 8.196382263349236141e-02 2.469482436665101643e-01 -1.971086959694703586e-02 1.464562593362198906e-01 -2.100698503066972950e-02 7.699313829678592486e-03 3.523536604158857277e-01 2.197435653686042045e-01 1.305298167607008009e-02 -1.687630014126781722e-02 9.757153412429170336e-02 -1.599933183475890641e-01 2.033846754643997279e-01 -9.312670038432362130e-02 -3.899933997206570524e-01 1.725655012401698250e-04 1.415122337362427207e-01 1.875574725243397689e-01 -3.982091023623901549e-01 -7.221071000516465777e-02 1.294509571645895141e-01 8.407090882535779575e-02 1.598494709800959632e-02 1.382817179286831011e-01 9.790413005060590035e-02 -6.178847422682841317e-02 -7.291031336068351520e-02 -5.634601752890346094e-02 6.681124909963970238e-02 -3.798149697305688854e-02 -1.336077815788869472e-01 1.270899861162697389e-02 7.072589878544868758e-02 1.800673153247977221e-01 -1.295809809027755576e-02 3.267925209136680886e-02 -9.343566847104826933e-02 -6.896023987169912044e-03 -1.281090595481592931e-01 -2.417392160685876215e-02 6.833223257767308267e-02 -5.845331678611613568e-02 -1.843778929417861090e-01 1.085456930452964250e-02 1.484873234607660408e-01 1.755846394041090386e-01 5.482659009502611341e-02 -5.396304107825442703e-02 1.258968179825789291e-01 3.641792801647714128e-02 -1.285547061866122442e-01 6.679776153630065383e-02 -1.232540946648675306e-01 2.783097833748325936e-02 -9.255314355613435129e-02 -1.220850397774866369e-01 9.110696149768689189e-02 -1.161683563577071455e-02 6.177168896373588097e-02 1.112377206665582652e-01 -3.149300221440037850e-02 1.187486353861260356e-02 -2.769278322977884038e-02 -2.588222217909058598e-02 -1.101765812535857036e-01 -1.203610369684677932e-02 2.934439429704944202e-01 -3.214168698647221906e-02 1.046377602351635482e-02 -3.490284249159840424e-02 -1.735383117849313706e-01 -5.680952139833421455e-02 -1.830258895151633952e-02 1.052909396241182988e-01 9.872182319811402540e-02 -1.594817190511520488e-01 -2.129221075443610972e-02 1.907289473300361263e-02 8.233192496986719427e-03 3.424583679637620975e-02 2.206138539221763964e-02 -1.860396624128629328e-01
-2.602513669902537519e-01 3.426637829879163044e-02 3.282404946054616468e-02 -2.166309518328462524e-01 1.039091396952889976e-02 -4.404335778626249365e-01 -1.454322994685749715e-01 3.129485895793056027e-01 2.665433917800366093e-01 3.171005437694476292e-01 -2.229271852645783591e-01 -2.104626643519771356e-01 -2.405527464174306643e-02 -8.708011243946023328e-02 8.036720175196643279e-02 2.450320963143607367e-01 -1.910547541142768729e-02 1.433768096767855660e-01 -2.209541153977076164e-02 8.132327996544869153e-03 3.531084500988963537e-01 2.183322561786811000e-01 1.429867546818134813e-02 -1.834317550977529118e-02 9.812174075222648839e-02 -1.581211055005140864e-01 2.035971224503139998e-01 -9.178241789401204997e-02 -3.880141803673430867e-01 -5.826254267436576902e-04 1.393154683079681766e-01 1.843893457815674319e-01 -3.951040148282184417e-01 -7.133032495093771796e-02 1.284248590678802593e-01 8.473523619362095805e-02 1.535339268388579738e-02 1.368892046915265726e-01 9.711388394568379323e-02 -6.020968705443913160e-02 -7.298621938152644040e-02 -5.685171045974080073e-02 6.522733698049190676e-02 -3.877907127883194194e-02 -1.334952932435620465e-01 1.252366036327854856e-02 7.038982329568575780e-02 1.799988755784529271e-01 -1.379235846250789592e-02 3.263942669721354994e-02 -9.188214583867156116e-02 -7.587574241609689428e-03 -1.270088172395147652e-01 -2.481914258284515992e-02 6.690891986418086301e-02 -5.794781042817233330e-02 -1.827197776738720136e-01 1.085717658360301624e-02 1.483729582444061612e-01 1.736144701729558371e-01 5.420939058783653952e-02 -5.376434806594931892e-02 1.257117913488580707e-01 3.612137948933853704e-02 -1.287343927825640721e-01 6.486691050675767733e-02 -1.230050516997750754e-01 2.817053164967026416e-02 -9.055433037083644721e-02 -1.212432228986568272e-01 8.951681278273448950e-02 -1.168948139856871085e-02 6.098052231204788981e-02 1.111426967035676200e-01 -3.051033249587113000e-02 1.228660669706322685e-02 -2.856467505862322204e-02 -2.568719343694342641e-02 -1.093698877372898393e-01 -1.169638003428064184e-02 2.926966877237019982e-01 -3.044836752957253562e-02 1.032683679113094791e-02 -3.380998254470737874e-02 -1.729031594240598990e-01 -5.690994225875005419e-02 -1.681231510779743199e-02 1.055204077420532766e-01 9.828804360484993952e-02 -1.579960550086043636e-01 -1.963705822520653982e-02 1.898539181775979121e-02 8.973909949736949207e-03 3.444621406559768284e-02 2.263453260379394427e-02 -1.845178026217383915e-01
-2.582590898927504264e-01 3.420671567882833941e-02 3.316259537846966143e-02 -2.144188947922119615e-01 1.047591461518942654e-02 -4.367016150360124582e-01 -1.435135640089301445e-01 3.098510525375997027e-01 2.644904357378474180e-01 3.141920810386970575e-01 -2.209562149045286583e-01 -2.094005102277369801e-01 -2.343501049231497962e-02 -8.684993838222301865e-02 7.990581006553371113e-02 2.434458012006333605e-01 -1.840055732724777196e-02 1.423722832675953232e-01 -2.167467739932589857e-02 8.750528473683122713e-03 3.524935127418182823e-01 2.162329310709647234e-01 1.414217695235877453e-02 -1.713655862498664889e-02 9.724487155146600836e-02 -1.581883711958388394e-01 2.032063517618147297e-01 -9.123230664156459224e-02 -3.854728388096360092e-01 -1.214294404137343476e-03 1.373738217172320863e-01 1.825410265403324406e-01 -3.931788152283942628e-01 -7.146383267459319177e-02 1.280360262268459004e-01 8.451999978996790897e-02 1.539049256554386735e-02 1.359543058805188498e-01 9.631381594110086097e-02 -5.879530002636446095e-02 -7.288633566417140885e-02 -5.656203205560707964e-02 6.459551439659368122e-02 -3.930196018237498701e-02 -1.332553590504429453e-01 1.260236699193216861e-02 6.950762917513399197e-02 1.779510812039441225e-01 -1.400712265646180017e-02 3.295961377351998289e-02 -9.141785436000576803e-02 -8.004515480815892550e-03 -1.254675811266953711e-01 -2.452629407663323158e-02 6.718341169035789429e-02 -5.778590879104879285e-02 -1.817130820409925129e-01 1.040309876235327030e-02 1.474580835082660857e-01 1.717177939883049731e-01 5.355879711569329349e-02 -5.334348315345572439e-02 1.253758823441613324e-01 3.524303907809381298e-02 -1.284524488354368832e-01 6.431859788365586195e-02 -1.216675827379596481e-01 2.795804631257481354e-02 -9.004047751475813266e-02 -1.212651893777094009e-01 8.953555752787602240e-02 -1.226158200888792169e-02 6.095862895969803019e-02 1.109499111293444223e-01 -3.068571038357171057e-02 1.187978074659865914e-02 -2.765004295647655042e-02 -2.493612435639799493e-02 -1.083117975789520682e-01 -1.157187681552151320e-02 2.907864664890416062e-01 -2.972237484027945298e-02 1.025896808307510955e-02 -3.342019740702274061e-02 -1.721146204617909070e-01 -5.646275062056828331e-02 -1.717351718935851423e-02 1.046882781315704170e-01 9.796018818262332284e-02 -1.564189069072916827e-01 -1.907401553715934103e-02 1.936524220752263922e-02 8.716417012292828823e-03 3.429788284303857127e-02 2.202067779749072862e-02 -1.839784084011607534e-01
-2.560902064291930569e-01 3.486827205961316734e-02 3.420506057047867365e-02 -2.128926288431690350e-01 1.059236585285630063e-02 -4.345162893481485655e-01 -1.410756247087867343e-01 3.059826049639594592e-01 2.634672293369615392e-01 3.135076401061890339e-01 -2.205553489268708978e-01 -2.090116155403678455e-01 -2.473989898260824105e-02 -8.710839375873961898e-02 8.236254424860070533e-02 2.393656966548614318e-01 -1.811692215963346328e-02 1.428959205344737804e-01 -2.119492771882973067e-02 8.751661334107544571e-03 3.474779960226066500e-01 2.154060352361993336e-01 1.256060912306727895e-02 -1.726908967718881333e-02 9.642678711360384847e-02 -1.576690004909700182e-01 2.008826519267560284e-01 -8.991115556232356920e-02 -3.825357108796552108e-01 -1.167311973943504491e-03 1.369904775862511304e-01 1.830997132828036389e-01 -3.902080647506480648e-01 -7.084226595057785403e-02 1.278134261586194587e-01 8.389000533187924991e-02 1.734369283332110739e-02 1.329739424761259836e-01 9.415419914830852610e-02 -5.901682649341861292e-02 -7.109576952783261405e-02 -5.488778657307133435e-02 6.521128058530119287e-02 -3.767886454764415860e-02 -1.299178494157958441e-01 1.247316472775387985e-02 6.879430980083296732e-02 1.758574042362201217e-01 -1.336162963188295555e-02 3.268350104681646412e-02 -9.089977568125860719e-02 -6.691024842241240569e-03 -1.236643814714296491e-01 -2.379086267559954448e-02 6.604417400575122998e-02 -5.608811460809521449e-02 -1.793298425628239712e-01 9.915269111234071425e-03 1.437358607191433491e-01 1.700561767821998915e-01 5.226679993492461956e-02 -5.138494309660680825e-02 1.233565906043169041e-01 3.438973341739289674e-02 -1.252305699117277349e-01 6.533538480842156215e-02 -1.196923532578541283e-01 2.681711599572303428e-02 -9.026248092241317966e-02 -1.193110447618535158e-01 8.872815842748298099e-02 -1.139823415720470079e-02 5.987925194206673157e-02 1.087646129833787778e-01 -3.119040263341163466e-02 1.043255423168755816e-02 -2.718254016277000737e-02 -2.478821035295394881e-02 -1.067785533466166642e-01 -1.233009861409079325e-02 2.859955510412190982e-01 -3.101432600826102559e-02 1.025007536481661007e-02 -3.436911104856922583e-02 -1.700421089727588708e-01 -5.517147566562305427e-02 -1.822975301461790543e-02 1.030280432598235096e-01 9.692490773445301688e-02 -1.550811256978737174e-01 -1.998633328909854567e-02 1.829935746528255081e-02 8.764124828805166731e-03 3.371466630228604072e-02 2.178478859417559005e-02 -1.807117844940737961e-01
-2.532599035781820107e-01 3.465933454486108678e-02 3.381586282319880288e-02 -2.108087827823224569e-01 1.036812944776142192e-02 -4.306934233252117661e-01 -1.386173695375290948e-01 3.022070345273909497e-01 2.595562121557802859e-01 3.106586007906286251e-01 -2.177882934411693450e-01 -2.072240661235850989e-01 -2.444783764228334808e-02 -8.619040966586696828e-02 8.182332409066853107e-02 2.362336047717004395e-01 -1.724779574209839295e-02 1.406963556443694974e-01 -2.115208359639983091e-02 9.284785134062546047e-03 3.459179157698328844e-01 2.130363256779460313e-01 1.260932202103547464e-02 -1.715065546298348217e-02 9.533691034794267161e-02 -1.559325522875074366e-01 1.998161542603903162e-01 -8.837692095101358503e-02 -3.786899142634458371e-01 -2.224991766797403733e-03 1.350849751813632538e-01 1.810519093567706239e-01 -3.856509002083596815e-01 -7.065608728298136687e-02 1.268159146218894584e-01 8.364865654314695975e-02 1.703219184973684894e-02 1.308445682275047872e-01 9.197765017193909598e-02 -5.738115429966905018e-02 -7.019218522148196193e-02 -5.497285640268970847e-02 6.449491836585251325e-02 -3.703645910629547316e-02 -1.277087734959886089e-01 1.206163310316618088e-02 6.793512370830964708e-02 1.734740221895522405e-01 -1.347756671674214465e-02 3.190798350574619580e-02 -8.909440642931965026e-02 -7.013723067495674333e-03 -1.214988598998462122e-01 -2.364767685778074169e-02 6.468581867386127837e-02 -5.497142589972866394e-02 -1.770155515005474856e-01 9.748275989692294086e-03 1.417087683937289233e-01 1.670175223099698569e-01 5.143919710626611991e-02 -5.050438146503628822e-02 1.216323334393318439e-01 3.308838954488094869e-02 -1.237037256490552267e-01 6.457848341258480562e-02 -1.179849805332987139e-01 2.638963622691554295e-02 -8.875592942090232418e-02 -1.176784612563171739e-01 8.755225060959134775e-02 -1.111910354033881013e-02 5.869591458573383824e-02 1.069408117751570048e-01 -3.138815969142949580e-02 1.028666328733709306e-02 -2.690083067873097478e-02 -2.466860851785518741e-02 -1.051056886068896523e-01 -1.280598133796123465e-02 2.825417787274004944e-01 -3.025186703236068878e-02 9.787267414624248665e-03 -3.400066144372786842e-02 -1.677124734986862598e-01 -5.406148626985692041e-02 -1.740283276499927922e-02 1.021395629585619552e-01 9.588200159572127235e-02 -1.527562255838761651e-01 -1.964138755181291801e-02 1.747921766626804943e-02 9.099868999865411492e-03 3.400983507840564524e-02 2.141150278414777688e-02 -1.780546713806298309e-01
-2.498939724806079343e-01 3.458931312282328280e-02 3.384971318272109869e-02 -2.080757000467032547e-01 1.053336775038481513e-02 -4.260405614033827559e-01 -1.355473361598050208e-01 2.973654682053308296e-01 2.553040217074639129e-01 3.069777205069937898e-01 -2.146088521154424222e-01 -2.047873884276622536e-01 -2.407044230213230621e-02 -8.539029200116482476e-02 8.124140014386461994e-02 2.329855898222894794e-01 -1.657254672073580487e-02 1.383269102139888518e-01 -2.090676420855939674e-02 9.862474568060417696e-03 3.425739477203747496e-01 2.099312891439505668e-01 1.185261294511368892e-02 -1.646321274029950016e-02 9.423778171488526867e-02 -1.548930790668525681e-01 1.979756609375187826e-01 -8.665013562543728842e-02 -3.745254851875852720e-01 -3.626222979517531881e-03 1.326285081825219203e-01 1.784362431827186679e-01 -3.808194302095369577e-01 -7.027574163716289457e-02 1.256793392035917001e-01 8.283714775808781461e-02 1.768621665715150795e-02 1.278534972386304869e-01 8.947408793168999674e-02 -5.601320060741277890e-02 -6.889018398240039087e-02 -5.405280397523110764e-02 6.307145634152457048e-02 -3.542749897555229344e-02 -1.241441504916619143e-01 1.167369323388281650e-02 6.660000248563360814e-02 1.703091158752073064e-01 -1.306501479087446294e-02 3.135436180235647019e-02 -8.760392700376598563e-02 -7.100587219069460707e-03 -1.185404919901974496e-01 -2.323016646230332757e-02 6.331422306312997628e-02 -5.371127821613455589e-02 -1.743051326590849825e-01 9.426416532241048071e-03 1.390106684788641744e-01 1.646281522383702678e-01 5.005247926809696518e-02 -4.939179797792431909e-02 1.202644121618055145e-01 3.129387907429458104e-02 -1.205557520009627182e-01 6.414313173649847932e-02 -1.154705581601230824e-01 2.541877130363932868e-02 -8.791581429187195207e-02 -1.159175459503961614e-01 8.637028880492658711e-02 -1.071329499226867689e-02 5.787636361804597562e-02 1.049807531078641026e-01 -3.189716483102229133e-02 9.392808467525834773e-03 -2.585161133320859617e-02 -2.393595558086402536e-02 -1.033578672884479244e-01 -1.380217297154446437e-02 2.786207012137597028e-01 -2.988382772519581135e-02 9.538801338625561149e-03 -3.415303492389883816e-02 -1.648368606026395511e-01 -5.244939766648988588e-02 -1.777934678463718998e-02 1.003559355404678027e-01 9.481800234750473177e-02 -1.502151225097728415e-01 -1.943852922363469363e-02 1.681746560621835349e-02 9.050062276336158160e-03 3.379962308202139748e-02 2.084112391163903816e-02 -1.749195095254185428e-01
-2.460532496031426208e-01 3.404206069970164283e-02 3.287843950146422667e-02 -2.046965110051544856e-01 1.047715626428584110e-02 -4.198685291051598156e-01 -1.315827516786072793e-01 2.916849048708479719e-01 2.501534614375151011e-01 3.027365936403114133e-01 -2.103409823237960830e-01 -2.015502257282821563e-01 -2.411516782949361948e-02 -8.400169832350160015e-02 8.002000535692799232e-02 2.289022971930541606e-01 -1.563880357854950318e-02 1.350263444975619564e-01 -2.078791442271706036e-02 1.013936678759283679e-02 3.389928985127866334e-01 2.057319574593654832e-01 1.147093506193961818e-02 -1.578610093539897091e-02 9.294865105078423118e-02 -1.531448677397781455e-01 1.962041061721324087e-01 -8.417237882016552486e-02 -3.694414353607138324e-01 -4.986216939731312643e-03 1.296522169651184997e-01 1.752370201024677498e-01 -3.744244903136507152e-01 -6.988597413262141733e-02 1.243250796269276953e-01 8.179539380853093067e-02 1.828120409837709695e-02 1.243342477982302685e-01 8.631549278178135554e-02 -5.402503154293554488e-02 -6.741878639418401320e-02 -5.301221620457125666e-02 6.094981795340830705e-02 -3.458763107936056735e-02 -1.202322755617826477e-01 1.091043409824915718e-02 6.526671645776591091e-02 1.670152092493654983e-01 -1.264088372969018360e-02 3.048007176532240708e-02 -8.560580819496566019e-02 -7.148023690618910027e-03 -1.150936236804068619e-01 -2.241178474444278923e-02 6.155639909099135804e-02 -5.233300798323090031e-02 -1.711976083956130712e-01 8.898069749507020454e-03 1.357318854211284065e-01 1.611138856950528886e-01 4.900566462469716639e-02 -4.792510329545047326e-02 1.182937686601120558e-01 2.952469711745454167e-02 -1.171898726284202608e-01 6.304719731643276814e-02 -1.127701728821912247e-01 2.463835446375142735e-02 -8.653744427378963489e-02 -1.137497244281425596e-01 8.468380482704752910e-02 -1.039199507006001791e-02 5.654308825505009739e-02 1.027697463003967165e-01 -3.204223965227328413e-02 8.585996091975085787e-03 -2.491032771910809893e-02 -2.319298320689305165e-02 -1.011909600690129446e-01 -1.448539661615982389e-02 2.742572708483477228e-01 -2.916949746004783572e-02 8.869372849098302453e-03 -3.410112375262640966e-02 -1.612383307661051368e-01 -5.061263498085255552e-02 -1.742569462188101742e-02 9.861790251653955452e-02 9.345737442392094974e-02 -1.471731665828569235e-01 -1.901637595368720762e-02 1.605871127897585959e-02 9.149296784262744495e-03 3.364852143068471080e-02 2.052138068913487989e-02 -1.714716917282276820e-01
-2.408478516054475826e-01 3.350944996559462180e-02 3.234446713185488986e-02 -2.006541030631607270e-01 1.061038260578140921e-02 -4.128296940614584742e-01 -1.264955827380526421e-01 2.842065945163939067e-01 2.433214494781635873e-01 2.970213355779396935e-01 -2.051415056680010729e-01 -1.982606715356388383e-01 -2.358113736646046468e-02 -8.274442925637789936e-02 7.943052935452710184e-02 2.231859625310150808e-01 -1.405788551604244749e-02 1.312459336586173919e-01 -2.076273413546294438e-02 1.123369224495234138e-02 3.350254402903842244e-01 2.010606334244931237e-01 1.092730160400363568e-02 -1.545972779827516422e-02 9.132854838025300515e-02 -1.511711430785246391e-01 1.938260802474424671e-01 -8.128215428590764013e-02 -3.623974590020072051e-01 -6.760390042772831086e-03 1.256951942765015540e-01 1.711590352554264727e-01 -3.666229358512969605e-01 -6.922418978637090436e-02 1.225684760759979258e-01 8.119355708323182375e-02 1.862726818490729325e-02 1.199523528513903176e-01 8.272340727014991513e-02 -5.140978444301942674e-02 -6.573250932338656205e-02 -5.220800090573452651e-02 5.919699182844915392e-02 -3.337189700232073147e-02 -1.159719251971313148e-01 1.043657535927358486e-02 6.332490598222388634e-02 1.628110156319673152e-01 -1.253495454980061048e-02 2.977373237557494334e-02 -8.303615186087366651e-02 -7.387457475570240358e-03 -1.109112600684581534e-01 -2.209244780628621604e-02 5.951152252958193806e-02 -5.030011368708561803e-02 -1.672527239068988258e-01 8.447703714482829654e-03 1.314269415619070680e-01 1.562746387698124850e-01 4.696298858822112871e-02 -4.633073502567710417e-02 1.158979810171130997e-01 2.696058379169719715e-02 -1.139297110485435471e-01 6.195388339730002747e-02 -1.098631238975914665e-01 2.332691896906173915e-02 -8.500668232482255782e-02 -1.111230835671004197e-01 8.266586222951449736e-02 -1.016769513656632686e-02 5.494417093223362414e-02 1.000127194789488111e-01 -3.235146529903373813e-02 7.529589015605765538e-03 -2.433324767110121509e-02 -2.246583005439407518e-02 -9.842082498800916457e-02 -1.508949970438924933e-02 2.679641332293389300e-01 -2.821795819270214029e-02 8.501026009699725466e-03 -3.395054278236686596e-02 -1.573218959823470819e-01 -4.834851567723647686e-02 -1.712477542415087595e-02 9.668860034431812911e-02 9.213626381715478431e-02 -1.431501624947466578e-01 -1.824577946961339348e-02 1.511308720508866901e-02 9.385140312090149012e-03 3.342873869626668965e-02 2.002161072627888991e-02 -1.665534592678941384e-01
-2.841679999999999762e-01 -2.312289999999999901e-01 -2.112640000000000073e-01 -2.776469999999999771e-01 -3.107039999999999802e-01 -3.823880000000000057e-01 2.577559999999999851e-01 6.700110000000000232e-01 2.237649999999999917e-01 1.555169999999999886e-01 -2.361570000000000058e-01 -5.394499999999999990e-02 -8.494000000000000161e-02 -1.134949999999999987e-01 4.831300000000000178e-02 1.875259999999999982e-01 1.921509999999999885e-01 1.161439999999999972e-01 -6.666600000000000303e-02 2.967900000000000052e-02 2.878729999999999900e-01 2.258599999999999844e-02 2.679309999999999747e-01 5.265700000000000242e-02 1.242240000000000011e-01 -4.092599999999999710e-02 -1.813999999999999987e-02 -2.160739999999999883e-01 -5.604339999999999877e-01 -1.083520000000000039e-01 2.552550000000000097e-01 3.103210000000000135e-01 -1.646730000000000138e-01 1.386899999999999938e-02 6.126000000000000195e-02 3.538399999999999879e-02 1.394390000000000074e-01 1.536059999999999925e-01 -2.666800000000000073e-02 -2.043999999999999984e-01 -1.639039999999999941e-01 -2.139409999999999923e-01 -1.074100000000000055e-02 -2.734460000000000224e-01 2.861899999999999861e-02 1.360280000000000100e-01 1.164779999999999982e-01 1.009629999999999972e-01 -3.103699999999999862e-02 1.230170000000000013e-01 3.728200000000000264e-02 -1.393820000000000059e-01 -2.271199999999999886e-01 1.614300000000000110e-02 6.470399999999999763e-02 7.468999999999999945e-03 -7.730700000000000072e-02 2.390950000000000020e-01 3.348180000000000045e-01 7.131099999999999939e-02 -7.682799999999999352e-02 -4.989699999999999691e-02 1.808849999999999902e-01 2.754500000000000004e-02 1.931099999999999831e-02 2.160729999999999873e-01 6.235299999999999870e-02 2.048600000000000074e-02 -1.338149999999999895e-01 5.090399999999999786e-02 1.144820000000000004e-01 4.143600000000000061e-02 2.487550000000000039e-01 2.343250000000000055e-01 5.666000000000000203e-02 3.484199999999999797e-02 -7.124600000000000377e-02 -4.959999999999999999e-03 -4.647500000000000242e-02 1.241300000000000042e-02 1.628940000000000110e-01 -1.414700000000000124e-01 -7.838699999999999835e-02 -1.059859999999999969e-01 -3.436270000000000158e-01 -2.819940000000000224e-01 1.561700000000000067e-02 4.078199999999999881e-02 3.777799999999999908e-02 -1.579679999999999973e-01 -8.904000000000000456e-03 -1.549999999999999989e-02 5.126100000000000101e-02 -1.336870000000000003e-01 -4.812199999999999811e-02 -8.586199999999999388e-02
-2.712060000000000026e-01 -2.317460000000000075e-01 -2.109370000000000134e-01 -2.677030000000000243e-01 -2.833089999999999775e-01 -3.884540000000000215e-01 2.389570000000000027e-01 6.321139999999999537e-01 1.965000000000000080e-01 1.607149999999999967e-01 -2.294640000000000013e-01 -4.526700000000000168e-02 -6.230900000000000327e-02 -1.370719999999999994e-01 2.561099999999999835e-02 1.875900000000000067e-01 2.052789999999999893e-01 1.238690000000000069e-01 -7.922300000000000175e-02 5.680899999999999839e-02 2.992540000000000200e-01 4.690099999999999825e-02 2.622030000000000194e-01 8.193899999999999795e-02 1.246619999999999950e-01 -1.565599999999999978e-02 -3.548599999999999671e-02 -2.215920000000000112e-01 -5.436250000000000249e-01 -9.757200000000000595e-02 2.147699999999999887e-01 2.678780000000000050e-01 -1.667480000000000073e-01 5.157099999999999879e-02 2.524500000000000008e-02 3.020899999999999974e-02 1.296400000000000052e-01 9.096799999999999331e-02 1.126000000000000048e-03 -1.975089999999999901e-01 -1.515120000000000078e-01 -1.958080000000000098e-01 8.415999999999999870e-03 -2.741270000000000095e-01 6.975000000000000297e-03 1.058400000000000035e-01 1.448309999999999875e-01 8.161300000000000499e-02 -4.841899999999999676e-02 1.279790000000000094e-01 6.154500000000000248e-02 -1.229910000000000031e-01 -2.513029999999999986e-01 -1.051900000000000057e-02 6.233400000000000052e-02 -3.487000000000000082e-03 -5.112799999999999984e-02 2.339900000000000035e-01 3.327129999999999810e-01 6.579699999999999438e-02 -8.341899999999999316e-02 -3.940599999999999659e-02 2.026910000000000101e-01 3.399999999999999811e-03 4.646900000000000336e-02 2.130060000000000009e-01 1.022480000000000055e-01 2.162899999999999892e-02 -1.260429999999999884e-01 5.011000000000000176e-02 1.357629999999999948e-01 1.663800000000000001e-02 2.526809999999999889e-01 2.579469999999999819e-01 3.221199999999999758e-02 1.472000000000000001e-03 -1.023889999999999939e-01 -2.938100000000000087e-02 -4.324000000000000066e-02 -9.460000000000000093e-04 1.721850000000000047e-01 -1.532920000000000116e-01 -6.665000000000000091e-02 -1.090980000000000005e-01 -3.414980000000000238e-01 -2.809349999999999903e-01 2.040900000000000006e-02 4.238700000000000107e-02 6.998600000000000654e-02 -1.663920000000000121e-01 -1.168399999999999994e-02 -1.044199999999999989e-02 5.909400000000000069e-02 -1.150140000000000051e-01 -4.780899999999999733e-02 -6.027500000000000219e-02